+ 0.11016 2 3 tcp 40 ------- 1 0.0 4.0 0 0
- 0.11016 2 3 tcp 40 ------- 1 0.0 4.0 0 0
r 0.311227 2 3 tcp 40 ------- 1 0.0 4.0 0 0
+ 0.616101 2 3 tcp 592 ------- 1 0.0 4.0 1 2
- 0.616101 2 3 tcp 592 ------- 1 0.0 4.0 1 2
+ 0.618469 2 3 tcp 592 ------- 1 0.0 4.0 2 3
- 0.631888 2 3 tcp 592 ------- 1 0.0 4.0 2 3
r 0.831888 2 3 tcp 592 ------- 1 0.0 4.0 1 2
r 0.847675 2 3 tcp 592 ------- 1 0.0 4.0 2 3
+ 1.145595 2 3 tcp 592 ------- 1 0.0 4.0 3 6
- 1.145595 2 3 tcp 592 ------- 1 0.0 4.0 3 6
+ 1.147963 2 3 tcp 592 ------- 1 0.0 4.0 4 7
- 1.161381 2 3 tcp 592 ------- 1 0.0 4.0 4 7
+ 1.161381 2 3 tcp 592 ------- 1 0.0 4.0 5 8
+ 1.163749 2 3 tcp 592 ------- 1 0.0 4.0 6 9
- 1.177168 2 3 tcp 592 ------- 1 0.0 4.0 5 8
- 1.192955 2 3 tcp 592 ------- 1 0.0 4.0 6 9
r 1.361381 2 3 tcp 592 ------- 1 0.0 4.0 3 6
r 1.377168 2 3 tcp 592 ------- 1 0.0 4.0 4 7
r 1.392955 2 3 tcp 592 ------- 1 0.0 4.0 5 8
r 1.408741 2 3 tcp 592 ------- 1 0.0 4.0 6 9
+ 1.675088 2 3 tcp 592 ------- 1 0.0 4.0 7 14
- 1.675088 2 3 tcp 592 ------- 1 0.0 4.0 7 14
+ 1.677456 2 3 tcp 592 ------- 1 0.0 4.0 8 15
- 1.690875 2 3 tcp 592 ------- 1 0.0 4.0 8 15
+ 1.690875 2 3 tcp 592 ------- 1 0.0 4.0 9 16
+ 1.693243 2 3 tcp 592 ------- 1 0.0 4.0 10 17
- 1.706661 2 3 tcp 592 ------- 1 0.0 4.0 9 16
+ 1.706661 2 3 tcp 592 ------- 1 0.0 4.0 11 18
+ 1.709029 2 3 tcp 592 ------- 1 0.0 4.0 12 19
- 1.722448 2 3 tcp 592 ------- 1 0.0 4.0 10 17
+ 1.722448 2 3 tcp 592 ------- 1 0.0 4.0 13 20
+ 1.724816 2 3 tcp 592 ------- 1 0.0 4.0 14 21
- 1.738235 2 3 tcp 592 ------- 1 0.0 4.0 11 18
- 1.754021 2 3 tcp 592 ------- 1 0.0 4.0 12 19
- 1.769808 2 3 tcp 592 ------- 1 0.0 4.0 13 20
- 1.785595 2 3 tcp 592 ------- 1 0.0 4.0 14 21
r 1.890875 2 3 tcp 592 ------- 1 0.0 4.0 7 14
r 1.906661 2 3 tcp 592 ------- 1 0.0 4.0 8 15
r 1.922448 2 3 tcp 592 ------- 1 0.0 4.0 9 16
r 1.938235 2 3 tcp 592 ------- 1 0.0 4.0 10 17
r 1.954021 2 3 tcp 592 ------- 1 0.0 4.0 11 18
r 1.969808 2 3 tcp 592 ------- 1 0.0 4.0 12 19
r 1.985595 2 3 tcp 592 ------- 1 0.0 4.0 13 20
r 2.001381 2 3 tcp 592 ------- 1 0.0 4.0 14 21
+ 2.204581 2 3 tcp 592 ------- 1 0.0 4.0 15 30
- 2.204581 2 3 tcp 592 ------- 1 0.0 4.0 15 30
+ 2.206949 2 3 tcp 592 ------- 1 0.0 4.0 16 31
- 2.220368 2 3 tcp 592 ------- 1 0.0 4.0 16 31
+ 2.220368 2 3 tcp 592 ------- 1 0.0 4.0 17 32
+ 2.222736 2 3 tcp 592 ------- 1 0.0 4.0 18 33
- 2.236155 2 3 tcp 592 ------- 1 0.0 4.0 17 32
+ 2.236155 2 3 tcp 592 ------- 1 0.0 4.0 19 34
+ 2.238523 2 3 tcp 592 ------- 1 0.0 4.0 20 35
- 2.251941 2 3 tcp 592 ------- 1 0.0 4.0 18 33
+ 2.251941 2 3 tcp 592 ------- 1 0.0 4.0 21 36
+ 2.254309 2 3 tcp 592 ------- 1 0.0 4.0 22 37
- 2.267728 2 3 tcp 592 ------- 1 0.0 4.0 19 34
+ 2.267728 2 3 tcp 592 ------- 1 0.0 4.0 23 38
+ 2.270096 2 3 tcp 592 ------- 1 0.0 4.0 24 39
d 2.270096 2 3 tcp 592 ------- 1 0.0 4.0 24 39
- 2.283515 2 3 tcp 592 ------- 1 0.0 4.0 20 35
+ 2.283515 2 3 tcp 592 ------- 1 0.0 4.0 25 40
+ 2.285883 2 3 tcp 592 ------- 1 0.0 4.0 26 41
d 2.285883 2 3 tcp 592 ------- 1 0.0 4.0 26 41
- 2.299301 2 3 tcp 592 ------- 1 0.0 4.0 21 36
+ 2.299301 2 3 tcp 592 ------- 1 0.0 4.0 27 42
+ 2.301669 2 3 tcp 592 ------- 1 0.0 4.0 28 43
d 2.301669 2 3 tcp 592 ------- 1 0.0 4.0 28 43
- 2.315088 2 3 tcp 592 ------- 1 0.0 4.0 22 37
+ 2.315088 2 3 tcp 592 ------- 1 0.0 4.0 29 44
+ 2.317456 2 3 tcp 592 ------- 1 0.0 4.0 30 45
d 2.317456 2 3 tcp 592 ------- 1 0.0 4.0 30 45
- 2.330875 2 3 tcp 592 ------- 1 0.0 4.0 23 38
- 2.346661 2 3 tcp 592 ------- 1 0.0 4.0 25 40
- 2.362448 2 3 tcp 592 ------- 1 0.0 4.0 27 42
- 2.378235 2 3 tcp 592 ------- 1 0.0 4.0 29 44
r 2.420368 2 3 tcp 592 ------- 1 0.0 4.0 15 30
r 2.436155 2 3 tcp 592 ------- 1 0.0 4.0 16 31
r 2.451941 2 3 tcp 592 ------- 1 0.0 4.0 17 32
r 2.467728 2 3 tcp 592 ------- 1 0.0 4.0 18 33
r 2.483515 2 3 tcp 592 ------- 1 0.0 4.0 19 34
r 2.499301 2 3 tcp 592 ------- 1 0.0 4.0 20 35
r 2.515088 2 3 tcp 592 ------- 1 0.0 4.0 21 36
r 2.530875 2 3 tcp 592 ------- 1 0.0 4.0 22 37
r 2.546661 2 3 tcp 592 ------- 1 0.0 4.0 23 38
r 2.562448 2 3 tcp 592 ------- 1 0.0 4.0 25 40
r 2.578235 2 3 tcp 592 ------- 1 0.0 4.0 27 42
r 2.594021 2 3 tcp 592 ------- 1 0.0 4.0 29 44
+ 2.734075 2 3 tcp 592 ------- 1 0.0 4.0 31 58
- 2.734075 2 3 tcp 592 ------- 1 0.0 4.0 31 58
+ 2.736443 2 3 tcp 592 ------- 1 0.0 4.0 32 59
- 2.749861 2 3 tcp 592 ------- 1 0.0 4.0 32 59
+ 2.749861 2 3 tcp 592 ------- 1 0.0 4.0 33 60
+ 2.752229 2 3 tcp 592 ------- 1 0.0 4.0 34 61
- 2.765648 2 3 tcp 592 ------- 1 0.0 4.0 33 60
+ 2.765648 2 3 tcp 592 ------- 1 0.0 4.0 35 62
+ 2.768016 2 3 tcp 592 ------- 1 0.0 4.0 36 63
- 2.781435 2 3 tcp 592 ------- 1 0.0 4.0 34 61
+ 2.781435 2 3 tcp 592 ------- 1 0.0 4.0 37 64
+ 2.783803 2 3 tcp 592 ------- 1 0.0 4.0 38 65
- 2.797221 2 3 tcp 592 ------- 1 0.0 4.0 35 62
+ 2.797221 2 3 tcp 592 ------- 1 0.0 4.0 39 66
+ 2.799589 2 3 tcp 592 ------- 1 0.0 4.0 40 67
d 2.799589 2 3 tcp 592 ------- 1 0.0 4.0 40 67
- 2.813008 2 3 tcp 592 ------- 1 0.0 4.0 36 63
+ 2.813008 2 3 tcp 592 ------- 1 0.0 4.0 41 68
+ 2.815376 2 3 tcp 592 ------- 1 0.0 4.0 42 69
d 2.815376 2 3 tcp 592 ------- 1 0.0 4.0 42 69
- 2.828795 2 3 tcp 592 ------- 1 0.0 4.0 37 64
+ 2.828795 2 3 tcp 592 ------- 1 0.0 4.0 43 70
+ 2.831163 2 3 tcp 592 ------- 1 0.0 4.0 44 71
d 2.831163 2 3 tcp 592 ------- 1 0.0 4.0 44 71
- 2.844581 2 3 tcp 592 ------- 1 0.0 4.0 38 65
+ 2.844581 2 3 tcp 592 ------- 1 0.0 4.0 45 72
+ 2.846949 2 3 tcp 592 ------- 1 0.0 4.0 46 73
d 2.846949 2 3 tcp 592 ------- 1 0.0 4.0 46 73
- 2.860368 2 3 tcp 592 ------- 1 0.0 4.0 39 66
+ 2.860368 2 3 tcp 592 ------- 1 0.0 4.0 47 74
+ 2.862736 2 3 tcp 592 ------- 1 0.0 4.0 48 75
d 2.862736 2 3 tcp 592 ------- 1 0.0 4.0 48 75
- 2.876155 2 3 tcp 592 ------- 1 0.0 4.0 41 68
+ 2.876155 2 3 tcp 592 ------- 1 0.0 4.0 49 76
- 2.891941 2 3 tcp 592 ------- 1 0.0 4.0 43 70
+ 2.891941 2 3 tcp 592 ------- 1 0.0 4.0 50 77
- 2.907728 2 3 tcp 592 ------- 1 0.0 4.0 45 72
+ 2.907728 2 3 tcp 592 ---A--- 1 0.0 4.0 24 78
- 2.923515 2 3 tcp 592 ------- 1 0.0 4.0 47 74
- 2.939301 2 3 tcp 592 ------- 1 0.0 4.0 49 76
r 2.949861 2 3 tcp 592 ------- 1 0.0 4.0 31 58
- 2.955088 2 3 tcp 592 ------- 1 0.0 4.0 50 77
r 2.965648 2 3 tcp 592 ------- 1 0.0 4.0 32 59
- 2.970875 2 3 tcp 592 ---A--- 1 0.0 4.0 24 78
r 2.981435 2 3 tcp 592 ------- 1 0.0 4.0 33 60
r 2.997221 2 3 tcp 592 ------- 1 0.0 4.0 34 61
r 3.013008 2 3 tcp 592 ------- 1 0.0 4.0 35 62
r 3.028795 2 3 tcp 592 ------- 1 0.0 4.0 36 63
r 3.044581 2 3 tcp 592 ------- 1 0.0 4.0 37 64
r 3.060368 2 3 tcp 592 ------- 1 0.0 4.0 38 65
r 3.076155 2 3 tcp 592 ------- 1 0.0 4.0 39 66
r 3.091941 2 3 tcp 592 ------- 1 0.0 4.0 41 68
r 3.107728 2 3 tcp 592 ------- 1 0.0 4.0 43 70
r 3.123515 2 3 tcp 592 ------- 1 0.0 4.0 45 72
r 3.139301 2 3 tcp 592 ------- 1 0.0 4.0 47 74
r 3.155088 2 3 tcp 592 ------- 1 0.0 4.0 49 76
r 3.170875 2 3 tcp 592 ------- 1 0.0 4.0 50 77
r 3.186661 2 3 tcp 592 ---A--- 1 0.0 4.0 24 78
+ 3.500368 2 3 tcp 592 ------- 1 0.0 4.0 26 95
- 3.500368 2 3 tcp 592 ------- 1 0.0 4.0 26 95
+ 3.502736 2 3 tcp 592 ------- 1 0.0 4.0 27 96
- 3.516155 2 3 tcp 592 ------- 1 0.0 4.0 27 96
r 3.716155 2 3 tcp 592 ------- 1 0.0 4.0 26 95
r 3.731941 2 3 tcp 592 ------- 1 0.0 4.0 27 96
+ 4.029861 2 3 tcp 592 ------- 1 0.0 4.0 28 99
- 4.029861 2 3 tcp 592 ------- 1 0.0 4.0 28 99
+ 4.032229 2 3 tcp 592 ------- 1 0.0 4.0 29 100
+ 4.034597 2 3 tcp 592 ------- 1 0.0 4.0 30 101
+ 4.045648 2 3 tcp 592 ------- 1 0.0 4.0 31 102
- 4.045648 2 3 tcp 592 ------- 1 0.0 4.0 29 100
- 4.061435 2 3 tcp 592 ------- 1 0.0 4.0 30 101
- 4.077221 2 3 tcp 592 ------- 1 0.0 4.0 31 102
r 4.245648 2 3 tcp 592 ------- 1 0.0 4.0 28 99
r 4.261435 2 3 tcp 592 ------- 1 0.0 4.0 29 100
r 4.277221 2 3 tcp 592 ------- 1 0.0 4.0 30 101
r 4.293008 2 3 tcp 592 ------- 1 0.0 4.0 31 102
+ 4.559355 2 3 tcp 592 ------- 1 0.0 4.0 32 107
- 4.559355 2 3 tcp 592 ------- 1 0.0 4.0 32 107
+ 4.561723 2 3 tcp 592 ------- 1 0.0 4.0 33 108
- 4.575141 2 3 tcp 592 ------- 1 0.0 4.0 33 108
+ 4.575141 2 3 tcp 592 ------- 1 0.0 4.0 34 109
- 4.590928 2 3 tcp 592 ------- 1 0.0 4.0 34 109
+ 4.590928 2 3 tcp 592 ------- 1 0.0 4.0 40 110
+ 4.593296 2 3 tcp 592 ------- 1 0.0 4.0 41 111
+ 4.595664 2 3 tcp 592 ------- 1 0.0 4.0 42 112
+ 4.598032 2 3 tcp 592 ------- 1 0.0 4.0 43 113
+ 4.6004 2 3 tcp 592 ------- 1 0.0 4.0 44 114
d 4.6004 2 3 tcp 592 ------- 1 0.0 4.0 44 114
- 4.606715 2 3 tcp 592 ------- 1 0.0 4.0 40 110
+ 4.606715 2 3 tcp 592 ------- 1 0.0 4.0 45 115
- 4.622501 2 3 tcp 592 ------- 1 0.0 4.0 41 111
- 4.638288 2 3 tcp 592 ------- 1 0.0 4.0 42 112
- 4.654075 2 3 tcp 592 ------- 1 0.0 4.0 43 113
- 4.669861 2 3 tcp 592 ------- 1 0.0 4.0 45 115
r 4.775141 2 3 tcp 592 ------- 1 0.0 4.0 32 107
r 4.790928 2 3 tcp 592 ------- 1 0.0 4.0 33 108
r 4.806715 2 3 tcp 592 ------- 1 0.0 4.0 34 109
r 4.822501 2 3 tcp 592 ------- 1 0.0 4.0 40 110
r 4.838288 2 3 tcp 592 ------- 1 0.0 4.0 41 111
r 4.854075 2 3 tcp 592 ------- 1 0.0 4.0 42 112
r 4.869861 2 3 tcp 592 ------- 1 0.0 4.0 43 113
r 4.885648 2 3 tcp 592 ------- 1 0.0 4.0 45 115
+ 5.088848 2 3 tcp 592 ------- 1 0.0 4.0 46 124
- 5.088848 2 3 tcp 592 ------- 1 0.0 4.0 46 124
+ 5.136208 2 3 tcp 592 ------- 1 0.0 4.0 47 125
- 5.136208 2 3 tcp 592 ------- 1 0.0 4.0 47 125
+ 5.151995 2 3 tcp 592 ------- 1 0.0 4.0 48 126
- 5.151995 2 3 tcp 592 ------- 1 0.0 4.0 48 126
+ 5.167781 2 3 tcp 592 ------- 1 0.0 4.0 49 127
- 5.167781 2 3 tcp 592 ------- 1 0.0 4.0 49 127
+ 5.170149 2 3 tcp 592 ------- 1 0.0 4.0 50 128
- 5.183568 2 3 tcp 592 ------- 1 0.0 4.0 50 128
+ 5.183568 2 3 tcp 592 ------- 1 0.0 4.0 51 129
- 5.199355 2 3 tcp 592 ------- 1 0.0 4.0 51 129
+ 5.199355 2 3 tcp 592 ------- 1 0.0 4.0 52 130
- 5.215141 2 3 tcp 592 ------- 1 0.0 4.0 52 130
r 5.304635 2 3 tcp 592 ------- 1 0.0 4.0 46 124
r 5.351995 2 3 tcp 592 ------- 1 0.0 4.0 47 125
r 5.367781 2 3 tcp 592 ------- 1 0.0 4.0 48 126
r 5.383568 2 3 tcp 592 ------- 1 0.0 4.0 49 127
r 5.399355 2 3 tcp 592 ------- 1 0.0 4.0 50 128
r 5.415141 2 3 tcp 592 ------- 1 0.0 4.0 51 129
r 5.430928 2 3 tcp 592 ------- 1 0.0 4.0 52 130
+ 6.077781 2 3 tcp 592 ---A--- 1 0.0 4.0 44 138
- 6.077781 2 3 tcp 592 ---A--- 1 0.0 4.0 44 138
r 6.293568 2 3 tcp 592 ---A--- 1 0.0 4.0 44 138
+ 6.607275 2 3 tcp 592 ------- 1 0.0 4.0 53 140
- 6.607275 2 3 tcp 592 ------- 1 0.0 4.0 53 140
+ 6.609643 2 3 tcp 592 ------- 1 0.0 4.0 54 141
- 6.623061 2 3 tcp 592 ------- 1 0.0 4.0 54 141
r 6.823061 2 3 tcp 592 ------- 1 0.0 4.0 53 140
r 6.838848 2 3 tcp 592 ------- 1 0.0 4.0 54 141
+ 7.136768 2 3 tcp 592 ------- 1 0.0 4.0 55 144
- 7.136768 2 3 tcp 592 ------- 1 0.0 4.0 55 144
+ 7.139136 2 3 tcp 592 ------- 1 0.0 4.0 56 145
- 7.152555 2 3 tcp 592 ------- 1 0.0 4.0 56 145
+ 7.152555 2 3 tcp 592 ------- 1 0.0 4.0 57 146
- 7.168341 2 3 tcp 592 ------- 1 0.0 4.0 57 146
r 7.352555 2 3 tcp 592 ------- 1 0.0 4.0 55 144
r 7.368341 2 3 tcp 592 ------- 1 0.0 4.0 56 145
r 7.384128 2 3 tcp 592 ------- 1 0.0 4.0 57 146
+ 7.666261 2 3 tcp 592 ------- 1 0.0 4.0 58 150
- 7.666261 2 3 tcp 592 ------- 1 0.0 4.0 58 150
+ 7.682048 2 3 tcp 592 ------- 1 0.0 4.0 59 151
- 7.682048 2 3 tcp 592 ------- 1 0.0 4.0 59 151
+ 7.697835 2 3 tcp 592 ------- 1 0.0 4.0 60 152
- 7.697835 2 3 tcp 592 ------- 1 0.0 4.0 60 152
+ 7.700203 2 3 tcp 592 ------- 1 0.0 4.0 61 153
- 7.713621 2 3 tcp 592 ------- 1 0.0 4.0 61 153
r 7.882048 2 3 tcp 592 ------- 1 0.0 4.0 58 150
r 7.897835 2 3 tcp 592 ------- 1 0.0 4.0 59 151
r 7.913621 2 3 tcp 592 ------- 1 0.0 4.0 60 152
r 7.929408 2 3 tcp 592 ------- 1 0.0 4.0 61 153
+ 8.195755 2 3 tcp 592 ------- 1 0.0 4.0 62 158
- 8.195755 2 3 tcp 592 ------- 1 0.0 4.0 62 158
+ 8.211541 2 3 tcp 592 ------- 1 0.0 4.0 63 159
- 8.211541 2 3 tcp 592 ------- 1 0.0 4.0 63 159
+ 8.227328 2 3 tcp 592 ------- 1 0.0 4.0 64 160
- 8.227328 2 3 tcp 592 ------- 1 0.0 4.0 64 160
+ 8.243115 2 3 tcp 592 ------- 1 0.0 4.0 65 161
- 8.243115 2 3 tcp 592 ------- 1 0.0 4.0 65 161
+ 8.245483 2 3 tcp 592 ------- 1 0.0 4.0 66 162
- 8.258901 2 3 tcp 592 ------- 1 0.0 4.0 66 162
r 8.411541 2 3 tcp 592 ------- 1 0.0 4.0 62 158
r 8.427328 2 3 tcp 592 ------- 1 0.0 4.0 63 159
r 8.443115 2 3 tcp 592 ------- 1 0.0 4.0 64 160
r 8.458901 2 3 tcp 592 ------- 1 0.0 4.0 65 161
r 8.474688 2 3 tcp 592 ------- 1 0.0 4.0 66 162
+ 8.725248 2 3 tcp 592 ------- 1 0.0 4.0 67 168
- 8.725248 2 3 tcp 592 ------- 1 0.0 4.0 67 168
+ 8.741035 2 3 tcp 592 ------- 1 0.0 4.0 68 169
- 8.741035 2 3 tcp 592 ------- 1 0.0 4.0 68 169
+ 8.756821 2 3 tcp 592 ------- 1 0.0 4.0 69 170
- 8.756821 2 3 tcp 592 ------- 1 0.0 4.0 69 170
+ 8.772608 2 3 tcp 592 ------- 1 0.0 4.0 70 171
- 8.772608 2 3 tcp 592 ------- 1 0.0 4.0 70 171
+ 8.788395 2 3 tcp 592 ------- 1 0.0 4.0 71 172
- 8.788395 2 3 tcp 592 ------- 1 0.0 4.0 71 172
r 8.941035 2 3 tcp 592 ------- 1 0.0 4.0 67 168
r 8.956821 2 3 tcp 592 ------- 1 0.0 4.0 68 169
r 8.972608 2 3 tcp 592 ------- 1 0.0 4.0 69 170
r 8.988395 2 3 tcp 592 ------- 1 0.0 4.0 70 171
r 9.004181 2 3 tcp 592 ------- 1 0.0 4.0 71 172
+ 9.254741 2 3 tcp 592 ------- 1 0.0 4.0 72 178
- 9.254741 2 3 tcp 592 ------- 1 0.0 4.0 72 178
+ 9.257109 2 3 tcp 592 ------- 1 0.0 4.0 73 179
- 9.270528 2 3 tcp 592 ------- 1 0.0 4.0 73 179
+ 9.270528 2 3 tcp 592 ------- 1 0.0 4.0 74 180
- 9.286315 2 3 tcp 592 ------- 1 0.0 4.0 74 180
+ 9.286315 2 3 tcp 592 ------- 1 0.0 4.0 75 181
- 9.302101 2 3 tcp 592 ------- 1 0.0 4.0 75 181
+ 9.302101 2 3 tcp 592 ------- 1 0.0 4.0 76 182
- 9.317888 2 3 tcp 592 ------- 1 0.0 4.0 76 182
+ 9.317888 2 3 tcp 592 ------- 1 0.0 4.0 77 183
- 9.333675 2 3 tcp 592 ------- 1 0.0 4.0 77 183
r 9.470528 2 3 tcp 592 ------- 1 0.0 4.0 72 178
r 9.486315 2 3 tcp 592 ------- 1 0.0 4.0 73 179
r 9.502101 2 3 tcp 592 ------- 1 0.0 4.0 74 180
r 9.517888 2 3 tcp 592 ------- 1 0.0 4.0 75 181
r 9.533675 2 3 tcp 592 ------- 1 0.0 4.0 76 182
r 9.549461 2 3 tcp 592 ------- 1 0.0 4.0 77 183
+ 9.784235 2 3 tcp 592 ------- 1 0.0 4.0 78 190
- 9.784235 2 3 tcp 592 ------- 1 0.0 4.0 78 190
+ 9.800021 2 3 tcp 592 ------- 1 0.0 4.0 79 191
- 9.800021 2 3 tcp 592 ------- 1 0.0 4.0 79 191
+ 9.802389 2 3 tcp 592 ------- 1 0.0 4.0 80 192
- 9.815808 2 3 tcp 592 ------- 1 0.0 4.0 80 192
+ 9.815808 2 3 tcp 592 ------- 1 0.0 4.0 81 193
- 9.831595 2 3 tcp 592 ------- 1 0.0 4.0 81 193
+ 9.831595 2 3 tcp 592 ------- 1 0.0 4.0 82 194
- 9.847381 2 3 tcp 592 ------- 1 0.0 4.0 82 194
+ 9.847381 2 3 tcp 592 ------- 1 0.0 4.0 83 195
- 9.863168 2 3 tcp 592 ------- 1 0.0 4.0 83 195
+ 9.863168 2 3 tcp 592 ------- 1 0.0 4.0 84 196
- 9.878955 2 3 tcp 592 ------- 1 0.0 4.0 84 196
r 10.000021 2 3 tcp 592 ------- 1 0.0 4.0 78 190
r 10.015808 2 3 tcp 592 ------- 1 0.0 4.0 79 191
r 10.031595 2 3 tcp 592 ------- 1 0.0 4.0 80 192
r 10.047381 2 3 tcp 592 ------- 1 0.0 4.0 81 193
r 10.063168 2 3 tcp 592 ------- 1 0.0 4.0 82 194
r 10.078955 2 3 tcp 592 ------- 1 0.0 4.0 83 195
r 10.094741 2 3 tcp 592 ------- 1 0.0 4.0 84 196
+ 10.313728 2 3 tcp 592 ------- 1 0.0 4.0 85 204
- 10.313728 2 3 tcp 592 ------- 1 0.0 4.0 85 204
+ 10.329515 2 3 tcp 592 ------- 1 0.0 4.0 86 205
- 10.329515 2 3 tcp 592 ------- 1 0.0 4.0 86 205
+ 10.345301 2 3 tcp 592 ------- 1 0.0 4.0 87 206
- 10.345301 2 3 tcp 592 ------- 1 0.0 4.0 87 206
+ 10.347669 2 3 tcp 592 ------- 1 0.0 4.0 88 207
- 10.361088 2 3 tcp 592 ------- 1 0.0 4.0 88 207
+ 10.361088 2 3 tcp 592 ------- 1 0.0 4.0 89 208
- 10.376875 2 3 tcp 592 ------- 1 0.0 4.0 89 208
+ 10.376875 2 3 tcp 592 ------- 1 0.0 4.0 90 209
- 10.392661 2 3 tcp 592 ------- 1 0.0 4.0 90 209
+ 10.392661 2 3 tcp 592 ------- 1 0.0 4.0 91 210
- 10.408448 2 3 tcp 592 ------- 1 0.0 4.0 91 210
+ 10.408448 2 3 tcp 592 ------- 1 0.0 4.0 92 211
- 10.424235 2 3 tcp 592 ------- 1 0.0 4.0 92 211
r 10.529515 2 3 tcp 592 ------- 1 0.0 4.0 85 204
r 10.545301 2 3 tcp 592 ------- 1 0.0 4.0 86 205
r 10.561088 2 3 tcp 592 ------- 1 0.0 4.0 87 206
r 10.576875 2 3 tcp 592 ------- 1 0.0 4.0 88 207
r 10.592661 2 3 tcp 592 ------- 1 0.0 4.0 89 208
r 10.608448 2 3 tcp 592 ------- 1 0.0 4.0 90 209
r 10.624235 2 3 tcp 592 ------- 1 0.0 4.0 91 210
r 10.640021 2 3 tcp 592 ------- 1 0.0 4.0 92 211
+ 10.843221 2 3 tcp 592 ------- 1 0.0 4.0 93 220
- 10.843221 2 3 tcp 592 ------- 1 0.0 4.0 93 220
+ 10.859008 2 3 tcp 592 ------- 1 0.0 4.0 94 221
- 10.859008 2 3 tcp 592 ------- 1 0.0 4.0 94 221
+ 10.874795 2 3 tcp 592 ------- 1 0.0 4.0 95 222
- 10.874795 2 3 tcp 592 ------- 1 0.0 4.0 95 222
+ 10.890581 2 3 tcp 592 ------- 1 0.0 4.0 96 223
- 10.890581 2 3 tcp 592 ------- 1 0.0 4.0 96 223
+ 10.906368 2 3 tcp 592 ------- 1 0.0 4.0 97 224
- 10.906368 2 3 tcp 592 ------- 1 0.0 4.0 97 224
+ 10.908736 2 3 tcp 592 ------- 1 0.0 4.0 98 225
- 10.922155 2 3 tcp 592 ------- 1 0.0 4.0 98 225
+ 10.922155 2 3 tcp 592 ------- 1 0.0 4.0 99 226
- 10.937941 2 3 tcp 592 ------- 1 0.0 4.0 99 226
+ 10.937941 2 3 tcp 592 ------- 1 0.0 4.0 100 227
- 10.953728 2 3 tcp 592 ------- 1 0.0 4.0 100 227
+ 10.953728 2 3 tcp 592 ------- 1 0.0 4.0 101 228
- 10.969515 2 3 tcp 592 ------- 1 0.0 4.0 101 228
r 11.059008 2 3 tcp 592 ------- 1 0.0 4.0 93 220
r 11.074795 2 3 tcp 592 ------- 1 0.0 4.0 94 221
r 11.090581 2 3 tcp 592 ------- 1 0.0 4.0 95 222
r 11.106368 2 3 tcp 592 ------- 1 0.0 4.0 96 223
r 11.122155 2 3 tcp 592 ------- 1 0.0 4.0 97 224
r 11.137941 2 3 tcp 592 ------- 1 0.0 4.0 98 225
r 11.153728 2 3 tcp 592 ------- 1 0.0 4.0 99 226
r 11.169515 2 3 tcp 592 ------- 1 0.0 4.0 100 227
r 11.185301 2 3 tcp 592 ------- 1 0.0 4.0 101 228
+ 11.372715 2 3 tcp 592 ------- 1 0.0 4.0 102 238
- 11.372715 2 3 tcp 592 ------- 1 0.0 4.0 102 238
+ 11.388501 2 3 tcp 592 ------- 1 0.0 4.0 103 239
- 11.388501 2 3 tcp 592 ------- 1 0.0 4.0 103 239
+ 11.404288 2 3 tcp 592 ------- 1 0.0 4.0 104 240
- 11.404288 2 3 tcp 592 ------- 1 0.0 4.0 104 240
+ 11.420075 2 3 tcp 592 ------- 1 0.0 4.0 105 241
- 11.420075 2 3 tcp 592 ------- 1 0.0 4.0 105 241
+ 11.435861 2 3 tcp 592 ------- 1 0.0 4.0 106 242
- 11.435861 2 3 tcp 592 ------- 1 0.0 4.0 106 242
+ 11.451648 2 3 tcp 592 ------- 1 0.0 4.0 107 243
- 11.451648 2 3 tcp 592 ------- 1 0.0 4.0 107 243
+ 11.454016 2 3 tcp 592 ------- 1 0.0 4.0 108 244
- 11.467435 2 3 tcp 592 ------- 1 0.0 4.0 108 244
+ 11.467435 2 3 tcp 592 ------- 1 0.0 4.0 109 245
- 11.483221 2 3 tcp 592 ------- 1 0.0 4.0 109 245
+ 11.483221 2 3 tcp 592 ------- 1 0.0 4.0 110 246
- 11.499008 2 3 tcp 592 ------- 1 0.0 4.0 110 246
+ 11.499008 2 3 tcp 592 ------- 1 0.0 4.0 111 247
- 11.514795 2 3 tcp 592 ------- 1 0.0 4.0 111 247
r 11.588501 2 3 tcp 592 ------- 1 0.0 4.0 102 238
r 11.604288 2 3 tcp 592 ------- 1 0.0 4.0 103 239
r 11.620075 2 3 tcp 592 ------- 1 0.0 4.0 104 240
r 11.635861 2 3 tcp 592 ------- 1 0.0 4.0 105 241
r 11.651648 2 3 tcp 592 ------- 1 0.0 4.0 106 242
r 11.667435 2 3 tcp 592 ------- 1 0.0 4.0 107 243
r 11.683221 2 3 tcp 592 ------- 1 0.0 4.0 108 244
r 11.699008 2 3 tcp 592 ------- 1 0.0 4.0 109 245
r 11.714795 2 3 tcp 592 ------- 1 0.0 4.0 110 246
r 11.730581 2 3 tcp 592 ------- 1 0.0 4.0 111 247
+ 11.902208 2 3 tcp 592 ------- 1 0.0 4.0 112 258
- 11.902208 2 3 tcp 592 ------- 1 0.0 4.0 112 258
+ 11.917995 2 3 tcp 592 ------- 1 0.0 4.0 113 259
- 11.917995 2 3 tcp 592 ------- 1 0.0 4.0 113 259
+ 11.933781 2 3 tcp 592 ------- 1 0.0 4.0 114 260
- 11.933781 2 3 tcp 592 ------- 1 0.0 4.0 114 260
+ 11.949568 2 3 tcp 592 ------- 1 0.0 4.0 115 261
- 11.949568 2 3 tcp 592 ------- 1 0.0 4.0 115 261
+ 11.965355 2 3 tcp 592 ------- 1 0.0 4.0 116 262
- 11.965355 2 3 tcp 592 ------- 1 0.0 4.0 116 262
+ 11.981141 2 3 tcp 592 ------- 1 0.0 4.0 117 263
- 11.981141 2 3 tcp 592 ------- 1 0.0 4.0 117 263
+ 11.996928 2 3 tcp 592 ------- 1 0.0 4.0 118 264
- 11.996928 2 3 tcp 592 ------- 1 0.0 4.0 118 264
+ 12.012715 2 3 tcp 592 ------- 1 0.0 4.0 119 265
- 12.012715 2 3 tcp 592 ------- 1 0.0 4.0 119 265
+ 12.015083 2 3 tcp 592 ------- 1 0.0 4.0 120 266
- 12.028501 2 3 tcp 592 ------- 1 0.0 4.0 120 266
+ 12.028501 2 3 tcp 592 ------- 1 0.0 4.0 121 267
- 12.044288 2 3 tcp 592 ------- 1 0.0 4.0 121 267
+ 12.044288 2 3 tcp 592 ------- 1 0.0 4.0 122 268
- 12.060075 2 3 tcp 592 ------- 1 0.0 4.0 122 268
r 12.117995 2 3 tcp 592 ------- 1 0.0 4.0 112 258
r 12.133781 2 3 tcp 592 ------- 1 0.0 4.0 113 259
r 12.149568 2 3 tcp 592 ------- 1 0.0 4.0 114 260
r 12.165355 2 3 tcp 592 ------- 1 0.0 4.0 115 261
r 12.181141 2 3 tcp 592 ------- 1 0.0 4.0 116 262
r 12.196928 2 3 tcp 592 ------- 1 0.0 4.0 117 263
r 12.212715 2 3 tcp 592 ------- 1 0.0 4.0 118 264
r 12.228501 2 3 tcp 592 ------- 1 0.0 4.0 119 265
r 12.244288 2 3 tcp 592 ------- 1 0.0 4.0 120 266
r 12.260075 2 3 tcp 592 ------- 1 0.0 4.0 121 267
r 12.275861 2 3 tcp 592 ------- 1 0.0 4.0 122 268
+ 12.431701 2 3 tcp 592 ------- 1 0.0 4.0 123 280
- 12.431701 2 3 tcp 592 ------- 1 0.0 4.0 123 280
+ 12.447488 2 3 tcp 592 ------- 1 0.0 4.0 124 281
- 12.447488 2 3 tcp 592 ------- 1 0.0 4.0 124 281
+ 12.463275 2 3 tcp 592 ------- 1 0.0 4.0 125 282
- 12.463275 2 3 tcp 592 ------- 1 0.0 4.0 125 282
+ 12.479061 2 3 tcp 592 ------- 1 0.0 4.0 126 283
- 12.479061 2 3 tcp 592 ------- 1 0.0 4.0 126 283
+ 12.494848 2 3 tcp 592 ------- 1 0.0 4.0 127 284
- 12.494848 2 3 tcp 592 ------- 1 0.0 4.0 127 284
+ 12.510635 2 3 tcp 592 ------- 1 0.0 4.0 128 285
- 12.510635 2 3 tcp 592 ------- 1 0.0 4.0 128 285
+ 12.526421 2 3 tcp 592 ------- 1 0.0 4.0 129 286
- 12.526421 2 3 tcp 592 ------- 1 0.0 4.0 129 286
+ 12.542208 2 3 tcp 592 ------- 1 0.0 4.0 130 287
- 12.542208 2 3 tcp 592 ------- 1 0.0 4.0 130 287
+ 12.557995 2 3 tcp 592 ------- 1 0.0 4.0 131 288
- 12.557995 2 3 tcp 592 ------- 1 0.0 4.0 131 288
+ 12.560363 2 3 tcp 592 ------- 1 0.0 4.0 132 289
- 12.573781 2 3 tcp 592 ------- 1 0.0 4.0 132 289
+ 12.573781 2 3 tcp 592 ------- 1 0.0 4.0 133 290
- 12.589568 2 3 tcp 592 ------- 1 0.0 4.0 133 290
+ 12.589568 2 3 tcp 592 ------- 1 0.0 4.0 134 291
- 12.605355 2 3 tcp 592 ------- 1 0.0 4.0 134 291
r 12.647488 2 3 tcp 592 ------- 1 0.0 4.0 123 280
r 12.663275 2 3 tcp 592 ------- 1 0.0 4.0 124 281
r 12.679061 2 3 tcp 592 ------- 1 0.0 4.0 125 282
r 12.694848 2 3 tcp 592 ------- 1 0.0 4.0 126 283
r 12.710635 2 3 tcp 592 ------- 1 0.0 4.0 127 284
r 12.726421 2 3 tcp 592 ------- 1 0.0 4.0 128 285
r 12.742208 2 3 tcp 592 ------- 1 0.0 4.0 129 286
r 12.757995 2 3 tcp 592 ------- 1 0.0 4.0 130 287
r 12.773781 2 3 tcp 592 ------- 1 0.0 4.0 131 288
r 12.789568 2 3 tcp 592 ------- 1 0.0 4.0 132 289
r 12.805355 2 3 tcp 592 ------- 1 0.0 4.0 133 290
r 12.821141 2 3 tcp 592 ------- 1 0.0 4.0 134 291
+ 12.961195 2 3 tcp 592 ------- 1 0.0 4.0 135 304
- 12.961195 2 3 tcp 592 ------- 1 0.0 4.0 135 304
+ 12.976981 2 3 tcp 592 ------- 1 0.0 4.0 136 305
- 12.976981 2 3 tcp 592 ------- 1 0.0 4.0 136 305
+ 12.992768 2 3 tcp 592 ------- 1 0.0 4.0 137 306
- 12.992768 2 3 tcp 592 ------- 1 0.0 4.0 137 306
+ 13.008555 2 3 tcp 592 ------- 1 0.0 4.0 138 307
- 13.008555 2 3 tcp 592 ------- 1 0.0 4.0 138 307
+ 13.024341 2 3 tcp 592 ------- 1 0.0 4.0 139 308
- 13.024341 2 3 tcp 592 ------- 1 0.0 4.0 139 308
+ 13.040128 2 3 tcp 592 ------- 1 0.0 4.0 140 309
- 13.040128 2 3 tcp 592 ------- 1 0.0 4.0 140 309
+ 13.055915 2 3 tcp 592 ------- 1 0.0 4.0 141 310
- 13.055915 2 3 tcp 592 ------- 1 0.0 4.0 141 310
+ 13.071701 2 3 tcp 592 ------- 1 0.0 4.0 142 311
- 13.071701 2 3 tcp 592 ------- 1 0.0 4.0 142 311
+ 13.087488 2 3 tcp 592 ------- 1 0.0 4.0 143 312
- 13.087488 2 3 tcp 592 ------- 1 0.0 4.0 143 312
+ 13.103275 2 3 tcp 592 ------- 1 0.0 4.0 144 313
- 13.103275 2 3 tcp 592 ------- 1 0.0 4.0 144 313
+ 13.119061 2 3 tcp 592 ------- 1 0.0 4.0 145 314
- 13.119061 2 3 tcp 592 ------- 1 0.0 4.0 145 314
+ 13.121429 2 3 tcp 592 ------- 1 0.0 4.0 146 315
- 13.134848 2 3 tcp 592 ------- 1 0.0 4.0 146 315
+ 13.134848 2 3 tcp 592 ------- 1 0.0 4.0 147 316
- 13.150635 2 3 tcp 592 ------- 1 0.0 4.0 147 316
r 13.176981 2 3 tcp 592 ------- 1 0.0 4.0 135 304
r 13.192768 2 3 tcp 592 ------- 1 0.0 4.0 136 305
r 13.208555 2 3 tcp 592 ------- 1 0.0 4.0 137 306
r 13.224341 2 3 tcp 592 ------- 1 0.0 4.0 138 307
r 13.240128 2 3 tcp 592 ------- 1 0.0 4.0 139 308
r 13.255915 2 3 tcp 592 ------- 1 0.0 4.0 140 309
r 13.271701 2 3 tcp 592 ------- 1 0.0 4.0 141 310
r 13.287488 2 3 tcp 592 ------- 1 0.0 4.0 142 311
r 13.303275 2 3 tcp 592 ------- 1 0.0 4.0 143 312
r 13.319061 2 3 tcp 592 ------- 1 0.0 4.0 144 313
r 13.334848 2 3 tcp 592 ------- 1 0.0 4.0 145 314
r 13.350635 2 3 tcp 592 ------- 1 0.0 4.0 146 315
r 13.366421 2 3 tcp 592 ------- 1 0.0 4.0 147 316
+ 13.490688 2 3 tcp 592 ------- 1 0.0 4.0 148 330
- 13.490688 2 3 tcp 592 ------- 1 0.0 4.0 148 330
+ 13.506475 2 3 tcp 592 ------- 1 0.0 4.0 149 331
- 13.506475 2 3 tcp 592 ------- 1 0.0 4.0 149 331
+ 13.522261 2 3 tcp 592 ------- 1 0.0 4.0 150 332
- 13.522261 2 3 tcp 592 ------- 1 0.0 4.0 150 332
+ 13.538048 2 3 tcp 592 ------- 1 0.0 4.0 151 333
- 13.538048 2 3 tcp 592 ------- 1 0.0 4.0 151 333
+ 13.553835 2 3 tcp 592 ------- 1 0.0 4.0 152 334
- 13.553835 2 3 tcp 592 ------- 1 0.0 4.0 152 334
+ 13.569621 2 3 tcp 592 ------- 1 0.0 4.0 153 335
- 13.569621 2 3 tcp 592 ------- 1 0.0 4.0 153 335
+ 13.585408 2 3 tcp 592 ------- 1 0.0 4.0 154 336
- 13.585408 2 3 tcp 592 ------- 1 0.0 4.0 154 336
+ 13.601195 2 3 tcp 592 ------- 1 0.0 4.0 155 337
- 13.601195 2 3 tcp 592 ------- 1 0.0 4.0 155 337
+ 13.616981 2 3 tcp 592 ------- 1 0.0 4.0 156 338
- 13.616981 2 3 tcp 592 ------- 1 0.0 4.0 156 338
+ 13.632768 2 3 tcp 592 ------- 1 0.0 4.0 157 339
- 13.632768 2 3 tcp 592 ------- 1 0.0 4.0 157 339
+ 13.648555 2 3 tcp 592 ------- 1 0.0 4.0 158 340
- 13.648555 2 3 tcp 592 ------- 1 0.0 4.0 158 340
+ 13.664341 2 3 tcp 592 ------- 1 0.0 4.0 159 341
- 13.664341 2 3 tcp 592 ------- 1 0.0 4.0 159 341
+ 13.666709 2 3 tcp 592 ------- 1 0.0 4.0 160 342
- 13.680128 2 3 tcp 592 ------- 1 0.0 4.0 160 342
+ 13.680128 2 3 tcp 592 ------- 1 0.0 4.0 161 343
- 13.695915 2 3 tcp 592 ------- 1 0.0 4.0 161 343
r 13.706475 2 3 tcp 592 ------- 1 0.0 4.0 148 330
r 13.722261 2 3 tcp 592 ------- 1 0.0 4.0 149 331
r 13.738048 2 3 tcp 592 ------- 1 0.0 4.0 150 332
r 13.753835 2 3 tcp 592 ------- 1 0.0 4.0 151 333
r 13.769621 2 3 tcp 592 ------- 1 0.0 4.0 152 334
r 13.785408 2 3 tcp 592 ------- 1 0.0 4.0 153 335
r 13.801195 2 3 tcp 592 ------- 1 0.0 4.0 154 336
r 13.816981 2 3 tcp 592 ------- 1 0.0 4.0 155 337
r 13.832768 2 3 tcp 592 ------- 1 0.0 4.0 156 338
r 13.848555 2 3 tcp 592 ------- 1 0.0 4.0 157 339
r 13.864341 2 3 tcp 592 ------- 1 0.0 4.0 158 340
r 13.880128 2 3 tcp 592 ------- 1 0.0 4.0 159 341
r 13.895915 2 3 tcp 592 ------- 1 0.0 4.0 160 342
r 13.911701 2 3 tcp 592 ------- 1 0.0 4.0 161 343
+ 14.020181 2 3 tcp 592 ------- 1 0.0 4.0 162 358
- 14.020181 2 3 tcp 592 ------- 1 0.0 4.0 162 358
+ 14.035968 2 3 tcp 592 ------- 1 0.0 4.0 163 359
- 14.035968 2 3 tcp 592 ------- 1 0.0 4.0 163 359
+ 14.051755 2 3 tcp 592 ------- 1 0.0 4.0 164 360
- 14.051755 2 3 tcp 592 ------- 1 0.0 4.0 164 360
+ 14.067541 2 3 tcp 592 ------- 1 0.0 4.0 165 361
- 14.067541 2 3 tcp 592 ------- 1 0.0 4.0 165 361
+ 14.083328 2 3 tcp 592 ------- 1 0.0 4.0 166 362
- 14.083328 2 3 tcp 592 ------- 1 0.0 4.0 166 362
+ 14.099115 2 3 tcp 592 ------- 1 0.0 4.0 167 363
- 14.099115 2 3 tcp 592 ------- 1 0.0 4.0 167 363
+ 14.114901 2 3 tcp 592 ------- 1 0.0 4.0 168 364
- 14.114901 2 3 tcp 592 ------- 1 0.0 4.0 168 364
+ 14.130688 2 3 tcp 592 ------- 1 0.0 4.0 169 365
- 14.130688 2 3 tcp 592 ------- 1 0.0 4.0 169 365
+ 14.146475 2 3 tcp 592 ------- 1 0.0 4.0 170 366
- 14.146475 2 3 tcp 592 ------- 1 0.0 4.0 170 366
+ 14.162261 2 3 tcp 592 ------- 1 0.0 4.0 171 367
- 14.162261 2 3 tcp 592 ------- 1 0.0 4.0 171 367
+ 14.178048 2 3 tcp 592 ------- 1 0.0 4.0 172 368
- 14.178048 2 3 tcp 592 ------- 1 0.0 4.0 172 368
+ 14.193835 2 3 tcp 592 ------- 1 0.0 4.0 173 369
- 14.193835 2 3 tcp 592 ------- 1 0.0 4.0 173 369
+ 14.209621 2 3 tcp 592 ------- 1 0.0 4.0 174 370
- 14.209621 2 3 tcp 592 ------- 1 0.0 4.0 174 370
+ 14.225408 2 3 tcp 592 ------- 1 0.0 4.0 175 371
- 14.225408 2 3 tcp 592 ------- 1 0.0 4.0 175 371
+ 14.227776 2 3 tcp 592 ------- 1 0.0 4.0 176 372
r 14.235968 2 3 tcp 592 ------- 1 0.0 4.0 162 358
- 14.241195 2 3 tcp 592 ------- 1 0.0 4.0 176 372
r 14.251755 2 3 tcp 592 ------- 1 0.0 4.0 163 359
r 14.267541 2 3 tcp 592 ------- 1 0.0 4.0 164 360
r 14.283328 2 3 tcp 592 ------- 1 0.0 4.0 165 361
r 14.299115 2 3 tcp 592 ------- 1 0.0 4.0 166 362
r 14.314901 2 3 tcp 592 ------- 1 0.0 4.0 167 363
r 14.330688 2 3 tcp 592 ------- 1 0.0 4.0 168 364
r 14.346475 2 3 tcp 592 ------- 1 0.0 4.0 169 365
r 14.362261 2 3 tcp 592 ------- 1 0.0 4.0 170 366
r 14.378048 2 3 tcp 592 ------- 1 0.0 4.0 171 367
r 14.393835 2 3 tcp 592 ------- 1 0.0 4.0 172 368
r 14.409621 2 3 tcp 592 ------- 1 0.0 4.0 173 369
r 14.425408 2 3 tcp 592 ------- 1 0.0 4.0 174 370
r 14.441195 2 3 tcp 592 ------- 1 0.0 4.0 175 371
r 14.456981 2 3 tcp 592 ------- 1 0.0 4.0 176 372
+ 14.549675 2 3 tcp 592 ------- 1 0.0 4.0 177 388
- 14.549675 2 3 tcp 592 ------- 1 0.0 4.0 177 388
+ 14.565461 2 3 tcp 592 ------- 1 0.0 4.0 178 389
- 14.565461 2 3 tcp 592 ------- 1 0.0 4.0 178 389
+ 14.581248 2 3 tcp 592 ------- 1 0.0 4.0 179 390
- 14.581248 2 3 tcp 592 ------- 1 0.0 4.0 179 390
+ 14.597035 2 3 tcp 592 ------- 1 0.0 4.0 180 391
- 14.597035 2 3 tcp 592 ------- 1 0.0 4.0 180 391
+ 14.612821 2 3 tcp 592 ------- 1 0.0 4.0 181 392
- 14.612821 2 3 tcp 592 ------- 1 0.0 4.0 181 392
+ 14.628608 2 3 tcp 592 ------- 1 0.0 4.0 182 393
- 14.628608 2 3 tcp 592 ------- 1 0.0 4.0 182 393
+ 14.644395 2 3 tcp 592 ------- 1 0.0 4.0 183 394
- 14.644395 2 3 tcp 592 ------- 1 0.0 4.0 183 394
+ 14.660181 2 3 tcp 592 ------- 1 0.0 4.0 184 395
- 14.660181 2 3 tcp 592 ------- 1 0.0 4.0 184 395
+ 14.675968 2 3 tcp 592 ------- 1 0.0 4.0 185 396
- 14.675968 2 3 tcp 592 ------- 1 0.0 4.0 185 396
+ 14.691755 2 3 tcp 592 ------- 1 0.0 4.0 186 397
- 14.691755 2 3 tcp 592 ------- 1 0.0 4.0 186 397
+ 14.707541 2 3 tcp 592 ------- 1 0.0 4.0 187 398
- 14.707541 2 3 tcp 592 ------- 1 0.0 4.0 187 398
+ 14.723328 2 3 tcp 592 ------- 1 0.0 4.0 188 399
- 14.723328 2 3 tcp 592 ------- 1 0.0 4.0 188 399
+ 14.739115 2 3 tcp 592 ------- 1 0.0 4.0 189 400
- 14.739115 2 3 tcp 592 ------- 1 0.0 4.0 189 400
+ 14.754901 2 3 tcp 592 ------- 1 0.0 4.0 190 401
- 14.754901 2 3 tcp 592 ------- 1 0.0 4.0 190 401
r 14.765461 2 3 tcp 592 ------- 1 0.0 4.0 177 388
+ 14.770688 2 3 tcp 592 ------- 1 0.0 4.0 191 402