h 0.1 0 4 cbr 1000 ------- 2 0.1 3.0 0 0
+ 0.14 0 4 cbr 1000 ------- 2 0.1 3.0 0 0
- 0.14 0 4 cbr 1000 ------- 2 0.1 3.0 0 0
d 0.140004 2 4 cbr 1000 ------- 2 0.1 3.0 0 0
d 0.140004 1 4 cbr 1000 ------- 2 0.1 3.0 0 0
r 0.180004 4 3 cbr 1000 ------- 2 0.1 3.0 0 0
h 0.5 1 4 cbr 1000 ------- 2 1.0 2.1 0 1
+ 0.54 1 4 cbr 1000 ------- 2 1.0 2.1 0 1
- 0.54 1 4 cbr 1000 ------- 2 1.0 2.1 0 1
d 0.540004 3 4 cbr 1000 ------- 2 1.0 2.1 0 1
d 0.540004 0 4 cbr 1000 ------- 2 1.0 2.1 0 1
r 0.580004 4 2 cbr 1000 ------- 2 1.0 2.1 0 1
h 0.9 0 4 cbr 1000 ------- 2 0.1 3.0 1 2
+ 0.94 0 4 cbr 1000 ------- 2 0.1 3.0 1 2
- 0.94 0 4 cbr 1000 ------- 2 0.1 3.0 1 2
d 0.940004 2 4 cbr 1000 ------- 2 0.1 3.0 1 2
d 0.940004 1 4 cbr 1000 ------- 2 0.1 3.0 1 2
r 0.980004 4 3 cbr 1000 ------- 2 0.1 3.0 1 2
h 1 0 4 tcp 40 ------- 1 0.0 2.0 0 3
+ 1.04 0 4 tcp 40 ------- 1 0.0 2.0 0 3
- 1.04 0 4 tcp 40 ------- 1 0.0 2.0 0 3
d 1.040004 3 4 tcp 40 ------- 1 0.0 2.0 0 3
d 1.040004 1 4 tcp 40 ------- 1 0.0 2.0 0 3
r 1.080004 4 2 tcp 40 ------- 1 0.0 2.0 0 3
h 1.080004 2 4 ack 40 ------- 1 2.0 0.0 0 4
+ 1.120004 2 4 ack 40 ------- 1 2.0 0.0 0 4
- 1.120004 2 4 ack 40 ------- 1 2.0 0.0 0 4
d 1.120008 3 4 ack 40 ------- 1 2.0 0.0 0 4
d 1.120008 1 4 ack 40 ------- 1 2.0 0.0 0 4
r 1.160008 4 0 ack 40 ------- 1 2.0 0.0 0 4
h 1.160008 0 4 tcp 1040 ------- 1 0.0 2.0 1 5
h 1.160008 0 4 tcp 1040 ------- 1 0.0 2.0 2 6
+ 1.200008 0 4 tcp 1040 ------- 1 0.0 2.0 1 5
- 1.200008 0 4 tcp 1040 ------- 1 0.0 2.0 1 5
+ 1.200008 0 4 tcp 1040 ------- 1 0.0 2.0 2 6
d 1.200012 3 4 tcp 1040 ------- 1 0.0 2.0 1 5
d 1.200012 1 4 tcp 1040 ------- 1 0.0 2.0 1 5
- 1.204424 0 4 tcp 1040 ------- 1 0.0 2.0 2 6
d 1.204428 3 4 tcp 1040 ------- 1 0.0 2.0 2 6
d 1.204428 1 4 tcp 1040 ------- 1 0.0 2.0 2 6
r 1.240012 4 2 tcp 1040 ------- 1 0.0 2.0 1 5
r 1.244428 4 2 tcp 1040 ------- 1 0.0 2.0 2 6
h 1.244428 2 4 ack 40 ------- 1 2.0 0.0 2 7
+ 1.284428 2 4 ack 40 ------- 1 2.0 0.0 2 7
- 1.284428 2 4 ack 40 ------- 1 2.0 0.0 2 7
d 1.284432 3 4 ack 40 ------- 1 2.0 0.0 2 7
d 1.284432 1 4 ack 40 ------- 1 2.0 0.0 2 7
h 1.3 1 4 cbr 1000 ------- 2 1.0 2.1 1 8
r 1.324432 4 0 ack 40 ------- 1 2.0 0.0 2 7
h 1.324432 0 4 tcp 1040 ------- 1 0.0 2.0 3 9
h 1.324432 0 4 tcp 1040 ------- 1 0.0 2.0 4 10
h 1.324432 0 4 tcp 1040 ------- 1 0.0 2.0 5 11
+ 1.34 1 4 cbr 1000 ------- 2 1.0 2.1 1 8
- 1.34 1 4 cbr 1000 ------- 2 1.0 2.1 1 8
d 1.340004 3 4 cbr 1000 ------- 2 1.0 2.1 1 8
d 1.340004 0 4 cbr 1000 ------- 2 1.0 2.1 1 8
+ 1.364432 0 4 tcp 1040 ------- 1 0.0 2.0 3 9
- 1.364432 0 4 tcp 1040 ------- 1 0.0 2.0 3 9
+ 1.364432 0 4 tcp 1040 ------- 1 0.0 2.0 4 10
+ 1.364432 0 4 tcp 1040 ------- 1 0.0 2.0 5 11
d 1.364436 3 4 tcp 1040 ------- 1 0.0 2.0 3 9
d 1.364436 1 4 tcp 1040 ------- 1 0.0 2.0 3 9
- 1.368848 0 4 tcp 1040 ------- 1 0.0 2.0 4 10
d 1.368852 3 4 tcp 1040 ------- 1 0.0 2.0 4 10
d 1.368852 1 4 tcp 1040 ------- 1 0.0 2.0 4 10
- 1.373264 0 4 tcp 1040 ------- 1 0.0 2.0 5 11
d 1.373268 3 4 tcp 1040 ------- 1 0.0 2.0 5 11
d 1.373268 1 4 tcp 1040 ------- 1 0.0 2.0 5 11
r 1.380004 4 2 cbr 1000 ------- 2 1.0 2.1 1 8
r 1.404436 4 2 tcp 1040 ------- 1 0.0 2.0 3 9
r 1.408852 4 2 tcp 1040 ------- 1 0.0 2.0 4 10
h 1.408852 2 4 ack 40 ------- 1 2.0 0.0 4 12
r 1.413268 4 2 tcp 1040 ------- 1 0.0 2.0 5 11
+ 1.448852 2 4 ack 40 ------- 1 2.0 0.0 4 12
- 1.448852 2 4 ack 40 ------- 1 2.0 0.0 4 12
d 1.448856 3 4 ack 40 ------- 1 2.0 0.0 4 12
d 1.448856 1 4 ack 40 ------- 1 2.0 0.0 4 12
r 1.488856 4 0 ack 40 ------- 1 2.0 0.0 4 12
h 1.488856 0 4 tcp 1040 ------- 1 0.0 2.0 6 13
h 1.488856 0 4 tcp 1040 ------- 1 0.0 2.0 7 14
h 1.488856 0 4 tcp 1040 ------- 1 0.0 2.0 8 15
h 1.513268 2 4 ack 40 ------- 1 2.0 0.0 5 16
+ 1.528856 0 4 tcp 1040 ------- 1 0.0 2.0 6 13
- 1.528856 0 4 tcp 1040 ------- 1 0.0 2.0 6 13
+ 1.528856 0 4 tcp 1040 ------- 1 0.0 2.0 7 14
+ 1.528856 0 4 tcp 1040 ------- 1 0.0 2.0 8 15
d 1.52886 3 4 tcp 1040 ------- 1 0.0 2.0 6 13
d 1.52886 1 4 tcp 1040 ------- 1 0.0 2.0 6 13
- 1.533272 0 4 tcp 1040 ------- 1 0.0 2.0 7 14
d 1.533276 3 4 tcp 1040 ------- 1 0.0 2.0 7 14
d 1.533276 1 4 tcp 1040 ------- 1 0.0 2.0 7 14
- 1.537688 0 4 tcp 1040 ------- 1 0.0 2.0 8 15
d 1.537692 3 4 tcp 1040 ------- 1 0.0 2.0 8 15
d 1.537692 1 4 tcp 1040 ------- 1 0.0 2.0 8 15
+ 1.553268 2 4 ack 40 ------- 1 2.0 0.0 5 16
- 1.553268 2 4 ack 40 ------- 1 2.0 0.0 5 16
d 1.553272 3 4 ack 40 ------- 1 2.0 0.0 5 16
d 1.553272 1 4 ack 40 ------- 1 2.0 0.0 5 16
r 1.56886 4 2 tcp 1040 ------- 1 0.0 2.0 6 13
r 1.573276 4 2 tcp 1040 ------- 1 0.0 2.0 7 14
h 1.573276 2 4 ack 40 ------- 1 2.0 0.0 7 17
r 1.577692 4 2 tcp 1040 ------- 1 0.0 2.0 8 15
r 1.593272 4 0 ack 40 ------- 1 2.0 0.0 5 16
h 1.593272 0 4 tcp 1040 ------- 1 0.0 2.0 9 18
h 1.593272 0 4 tcp 1040 ------- 1 0.0 2.0 10 19
+ 1.613276 2 4 ack 40 ------- 1 2.0 0.0 7 17
- 1.613276 2 4 ack 40 ------- 1 2.0 0.0 7 17
d 1.61328 3 4 ack 40 ------- 1 2.0 0.0 7 17
d 1.61328 1 4 ack 40 ------- 1 2.0 0.0 7 17
+ 1.633272 0 4 tcp 1040 ------- 1 0.0 2.0 9 18
- 1.633272 0 4 tcp 1040 ------- 1 0.0 2.0 9 18
+ 1.633272 0 4 tcp 1040 ------- 1 0.0 2.0 10 19
d 1.633276 3 4 tcp 1040 ------- 1 0.0 2.0 9 18
d 1.633276 1 4 tcp 1040 ------- 1 0.0 2.0 9 18
- 1.637688 0 4 tcp 1040 ------- 1 0.0 2.0 10 19
d 1.637692 3 4 tcp 1040 ------- 1 0.0 2.0 10 19
d 1.637692 1 4 tcp 1040 ------- 1 0.0 2.0 10 19
r 1.65328 4 0 ack 40 ------- 1 2.0 0.0 7 17
h 1.65328 0 4 tcp 1040 ------- 1 0.0 2.0 11 20
h 1.65328 0 4 tcp 1040 ------- 1 0.0 2.0 12 21
h 1.65328 0 4 tcp 1040 ------- 1 0.0 2.0 13 22
r 1.673276 4 2 tcp 1040 ------- 1 0.0 2.0 9 18
h 1.673276 2 4 ack 40 ------- 1 2.0 0.0 9 23
r 1.677692 4 2 tcp 1040 ------- 1 0.0 2.0 10 19
+ 1.69328 0 4 tcp 1040 ------- 1 0.0 2.0 11 20
- 1.69328 0 4 tcp 1040 ------- 1 0.0 2.0 11 20
+ 1.69328 0 4 tcp 1040 ------- 1 0.0 2.0 12 21
+ 1.69328 0 4 tcp 1040 ------- 1 0.0 2.0 13 22
d 1.693284 3 4 tcp 1040 ------- 1 0.0 2.0 11 20
d 1.693284 1 4 tcp 1040 ------- 1 0.0 2.0 11 20
- 1.697696 0 4 tcp 1040 ------- 1 0.0 2.0 12 21
d 1.6977 3 4 tcp 1040 ------- 1 0.0 2.0 12 21
d 1.6977 1 4 tcp 1040 ------- 1 0.0 2.0 12 21
h 1.7 0 4 cbr 1000 ------- 2 0.1 3.0 2 24
- 1.702112 0 4 tcp 1040 ------- 1 0.0 2.0 13 22
d 1.702116 3 4 tcp 1040 ------- 1 0.0 2.0 13 22
d 1.702116 1 4 tcp 1040 ------- 1 0.0 2.0 13 22
+ 1.713276 2 4 ack 40 ------- 1 2.0 0.0 9 23
- 1.713276 2 4 ack 40 ------- 1 2.0 0.0 9 23
d 1.71328 3 4 ack 40 ------- 1 2.0 0.0 9 23
d 1.71328 1 4 ack 40 ------- 1 2.0 0.0 9 23
r 1.733284 4 2 tcp 1040 ------- 1 0.0 2.0 11 20
h 1.733284 2 4 ack 40 ------- 1 2.0 0.0 11 25
r 1.7377 4 2 tcp 1040 ------- 1 0.0 2.0 12 21
+ 1.74 0 4 cbr 1000 ------- 2 0.1 3.0 2 24
- 1.74 0 4 cbr 1000 ------- 2 0.1 3.0 2 24
d 1.740004 2 4 cbr 1000 ------- 2 0.1 3.0 2 24
d 1.740004 1 4 cbr 1000 ------- 2 0.1 3.0 2 24
r 1.742116 4 2 tcp 1040 ------- 1 0.0 2.0 13 22
h 1.742116 2 4 ack 40 ------- 1 2.0 0.0 13 26
r 1.75328 4 0 ack 40 ------- 1 2.0 0.0 9 23
h 1.75328 0 4 tcp 1040 ------- 1 0.0 2.0 14 27
h 1.75328 0 4 tcp 1040 ------- 1 0.0 2.0 15 28
h 1.75328 0 4 tcp 1040 ------- 1 0.0 2.0 16 29
+ 1.773284 2 4 ack 40 ------- 1 2.0 0.0 11 25
- 1.773284 2 4 ack 40 ------- 1 2.0 0.0 11 25
d 1.773288 3 4 ack 40 ------- 1 2.0 0.0 11 25
d 1.773288 1 4 ack 40 ------- 1 2.0 0.0 11 25
r 1.780004 4 3 cbr 1000 ------- 2 0.1 3.0 2 24
+ 1.782116 2 4 ack 40 ------- 1 2.0 0.0 13 26
- 1.782116 2 4 ack 40 ------- 1 2.0 0.0 13 26
d 1.78212 3 4 ack 40 ------- 1 2.0 0.0 13 26
d 1.78212 1 4 ack 40 ------- 1 2.0 0.0 13 26
+ 1.79328 0 4 tcp 1040 ------- 1 0.0 2.0 14 27
- 1.79328 0 4 tcp 1040 ------- 1 0.0 2.0 14 27
+ 1.79328 0 4 tcp 1040 ------- 1 0.0 2.0 15 28
+ 1.79328 0 4 tcp 1040 ------- 1 0.0 2.0 16 29
d 1.793284 3 4 tcp 1040 ------- 1 0.0 2.0 14 27
d 1.793284 1 4 tcp 1040 ------- 1 0.0 2.0 14 27
- 1.797696 0 4 tcp 1040 ------- 1 0.0 2.0 15 28
d 1.7977 3 4 tcp 1040 ------- 1 0.0 2.0 15 28
d 1.7977 1 4 tcp 1040 ------- 1 0.0 2.0 15 28
- 1.802112 0 4 tcp 1040 ------- 1 0.0 2.0 16 29
d 1.802116 3 4 tcp 1040 ------- 1 0.0 2.0 16 29
d 1.802116 1 4 tcp 1040 ------- 1 0.0 2.0 16 29
r 1.813288 4 0 ack 40 ------- 1 2.0 0.0 11 25
h 1.813288 0 4 tcp 1040 ------- 1 0.0 2.0 17 30
h 1.813288 0 4 tcp 1040 ------- 1 0.0 2.0 18 31
h 1.813288 0 4 tcp 1040 ------- 1 0.0 2.0 19 32
r 1.82212 4 0 ack 40 ------- 1 2.0 0.0 13 26
h 1.82212 0 4 tcp 1040 ------- 1 0.0 2.0 20 33
h 1.82212 0 4 tcp 1040 ------- 1 0.0 2.0 21 34
h 1.82212 0 4 tcp 1040 ------- 1 0.0 2.0 22 35
r 1.833284 4 2 tcp 1040 ------- 1 0.0 2.0 14 27
r 1.8377 4 2 tcp 1040 ------- 1 0.0 2.0 15 28
h 1.8377 2 4 ack 40 ------- 1 2.0 0.0 15 36
r 1.842116 4 2 tcp 1040 ------- 1 0.0 2.0 16 29
+ 1.853288 0 4 tcp 1040 ------- 1 0.0 2.0 17 30
- 1.853288 0 4 tcp 1040 ------- 1 0.0 2.0 17 30
+ 1.853288 0 4 tcp 1040 ------- 1 0.0 2.0 18 31
+ 1.853288 0 4 tcp 1040 ------- 1 0.0 2.0 19 32
d 1.853292 3 4 tcp 1040 ------- 1 0.0 2.0 17 30
d 1.853292 1 4 tcp 1040 ------- 1 0.0 2.0 17 30
- 1.857704 0 4 tcp 1040 ------- 1 0.0 2.0 18 31
d 1.857708 3 4 tcp 1040 ------- 1 0.0 2.0 18 31
d 1.857708 1 4 tcp 1040 ------- 1 0.0 2.0 18 31
+ 1.86212 0 4 tcp 1040 ------- 1 0.0 2.0 20 33
+ 1.86212 0 4 tcp 1040 ------- 1 0.0 2.0 21 34
+ 1.86212 0 4 tcp 1040 ------- 1 0.0 2.0 22 35
- 1.86212 0 4 tcp 1040 ------- 1 0.0 2.0 19 32
d 1.862124 3 4 tcp 1040 ------- 1 0.0 2.0 19 32
d 1.862124 1 4 tcp 1040 ------- 1 0.0 2.0 19 32
- 1.866536 0 4 tcp 1040 ------- 1 0.0 2.0 20 33
d 1.86654 3 4 tcp 1040 ------- 1 0.0 2.0 20 33
d 1.86654 1 4 tcp 1040 ------- 1 0.0 2.0 20 33
- 1.870952 0 4 tcp 1040 ------- 1 0.0 2.0 21 34
d 1.870956 3 4 tcp 1040 ------- 1 0.0 2.0 21 34
d 1.870956 1 4 tcp 1040 ------- 1 0.0 2.0 21 34
- 1.875368 0 4 tcp 1040 ------- 1 0.0 2.0 22 35
d 1.875372 3 4 tcp 1040 ------- 1 0.0 2.0 22 35
d 1.875372 1 4 tcp 1040 ------- 1 0.0 2.0 22 35
+ 1.8777 2 4 ack 40 ------- 1 2.0 0.0 15 36
- 1.8777 2 4 ack 40 ------- 1 2.0 0.0 15 36
d 1.877704 3 4 ack 40 ------- 1 2.0 0.0 15 36
d 1.877704 1 4 ack 40 ------- 1 2.0 0.0 15 36
r 1.893292 4 2 tcp 1040 ------- 1 0.0 2.0 17 30
h 1.893292 2 4 ack 40 ------- 1 2.0 0.0 17 37
r 1.897708 4 2 tcp 1040 ------- 1 0.0 2.0 18 31
r 1.902124 4 2 tcp 1040 ------- 1 0.0 2.0 19 32
h 1.902124 2 4 ack 40 ------- 1 2.0 0.0 19 38
r 1.90654 4 2 tcp 1040 ------- 1 0.0 2.0 20 33
r 1.910956 4 2 tcp 1040 ------- 1 0.0 2.0 21 34
h 1.910956 2 4 ack 40 ------- 1 2.0 0.0 21 39
r 1.915372 4 2 tcp 1040 ------- 1 0.0 2.0 22 35
r 1.917704 4 0 ack 40 ------- 1 2.0 0.0 15 36
h 1.917704 0 4 tcp 1040 ------- 1 0.0 2.0 23 40
h 1.917704 0 4 tcp 1040 ------- 1 0.0 2.0 24 41
h 1.917704 0 4 tcp 1040 ------- 1 0.0 2.0 25 42
+ 1.933292 2 4 ack 40 ------- 1 2.0 0.0 17 37
- 1.933292 2 4 ack 40 ------- 1 2.0 0.0 17 37
d 1.933296 3 4 ack 40 ------- 1 2.0 0.0 17 37
d 1.933296 1 4 ack 40 ------- 1 2.0 0.0 17 37
+ 1.942124 2 4 ack 40 ------- 1 2.0 0.0 19 38
- 1.942124 2 4 ack 40 ------- 1 2.0 0.0 19 38
d 1.942128 3 4 ack 40 ------- 1 2.0 0.0 19 38
d 1.942128 1 4 ack 40 ------- 1 2.0 0.0 19 38
+ 1.950956 2 4 ack 40 ------- 1 2.0 0.0 21 39
- 1.950956 2 4 ack 40 ------- 1 2.0 0.0 21 39
d 1.95096 3 4 ack 40 ------- 1 2.0 0.0 21 39
d 1.95096 1 4 ack 40 ------- 1 2.0 0.0 21 39
+ 1.957704 0 4 tcp 1040 ------- 1 0.0 2.0 23 40
- 1.957704 0 4 tcp 1040 ------- 1 0.0 2.0 23 40
+ 1.957704 0 4 tcp 1040 ------- 1 0.0 2.0 24 41
+ 1.957704 0 4 tcp 1040 ------- 1 0.0 2.0 25 42
d 1.957708 3 4 tcp 1040 ------- 1 0.0 2.0 23 40
d 1.957708 1 4 tcp 1040 ------- 1 0.0 2.0 23 40
- 1.96212 0 4 tcp 1040 ------- 1 0.0 2.0 24 41
d 1.962124 3 4 tcp 1040 ------- 1 0.0 2.0 24 41
d 1.962124 1 4 tcp 1040 ------- 1 0.0 2.0 24 41
- 1.966536 0 4 tcp 1040 ------- 1 0.0 2.0 25 42
d 1.96654 3 4 tcp 1040 ------- 1 0.0 2.0 25 42
d 1.96654 1 4 tcp 1040 ------- 1 0.0 2.0 25 42
r 1.973296 4 0 ack 40 ------- 1 2.0 0.0 17 37
h 1.973296 0 4 tcp 1040 ------- 1 0.0 2.0 26 43
h 1.973296 0 4 tcp 1040 ------- 1 0.0 2.0 27 44
h 1.973296 0 4 tcp 1040 ------- 1 0.0 2.0 28 45
r 1.982128 4 0 ack 40 ------- 1 2.0 0.0 19 38
h 1.982128 0 4 tcp 1040 ------- 1 0.0 2.0 29 46
h 1.982128 0 4 tcp 1040 ------- 1 0.0 2.0 30 47
h 1.982128 0 4 tcp 1040 ------- 1 0.0 2.0 31 48
r 1.99096 4 0 ack 40 ------- 1 2.0 0.0 21 39
h 1.99096 0 4 tcp 1040 ------- 1 0.0 2.0 32 49
h 1.99096 0 4 tcp 1040 ------- 1 0.0 2.0 33 50
h 1.99096 0 4 tcp 1040 ------- 1 0.0 2.0 34 51
r 1.997708 4 2 tcp 1040 ------- 1 0.0 2.0 23 40
h 1.997708 2 4 ack 40 ------- 1 2.0 0.0 23 52
r 2.002124 4 2 tcp 1040 ------- 1 0.0 2.0 24 41
r 2.00654 4 2 tcp 1040 ------- 1 0.0 2.0 25 42
h 2.00654 2 4 ack 40 ------- 1 2.0 0.0 25 53
+ 2.013296 0 4 tcp 1040 ------- 1 0.0 2.0 26 43
- 2.013296 0 4 tcp 1040 ------- 1 0.0 2.0 26 43
+ 2.013296 0 4 tcp 1040 ------- 1 0.0 2.0 27 44
+ 2.013296 0 4 tcp 1040 ------- 1 0.0 2.0 28 45
d 2.0133 3 4 tcp 1040 ------- 1 0.0 2.0 26 43
d 2.0133 1 4 tcp 1040 ------- 1 0.0 2.0 26 43
- 2.017712 0 4 tcp 1040 ------- 1 0.0 2.0 27 44
d 2.017716 3 4 tcp 1040 ------- 1 0.0 2.0 27 44
d 2.017716 1 4 tcp 1040 ------- 1 0.0 2.0 27 44
+ 2.022128 0 4 tcp 1040 ------- 1 0.0 2.0 29 46
+ 2.022128 0 4 tcp 1040 ------- 1 0.0 2.0 30 47
+ 2.022128 0 4 tcp 1040 ------- 1 0.0 2.0 31 48
- 2.022128 0 4 tcp 1040 ------- 1 0.0 2.0 28 45
d 2.022132 3 4 tcp 1040 ------- 1 0.0 2.0 28 45
d 2.022132 1 4 tcp 1040 ------- 1 0.0 2.0 28 45
- 2.026544 0 4 tcp 1040 ------- 1 0.0 2.0 29 46
d 2.026548 3 4 tcp 1040 ------- 1 0.0 2.0 29 46
d 2.026548 1 4 tcp 1040 ------- 1 0.0 2.0 29 46
+ 2.03096 0 4 tcp 1040 ------- 1 0.0 2.0 32 49
+ 2.03096 0 4 tcp 1040 ------- 1 0.0 2.0 33 50
+ 2.03096 0 4 tcp 1040 ------- 1 0.0 2.0 34 51
- 2.03096 0 4 tcp 1040 ------- 1 0.0 2.0 30 47
d 2.030964 3 4 tcp 1040 ------- 1 0.0 2.0 30 47
d 2.030964 1 4 tcp 1040 ------- 1 0.0 2.0 30 47
- 2.035376 0 4 tcp 1040 ------- 1 0.0 2.0 31 48
d 2.03538 3 4 tcp 1040 ------- 1 0.0 2.0 31 48
d 2.03538 1 4 tcp 1040 ------- 1 0.0 2.0 31 48
+ 2.037708 2 4 ack 40 ------- 1 2.0 0.0 23 52
- 2.037708 2 4 ack 40 ------- 1 2.0 0.0 23 52
d 2.037712 3 4 ack 40 ------- 1 2.0 0.0 23 52
d 2.037712 1 4 ack 40 ------- 1 2.0 0.0 23 52
- 2.039792 0 4 tcp 1040 ------- 1 0.0 2.0 32 49
d 2.039796 3 4 tcp 1040 ------- 1 0.0 2.0 32 49
d 2.039796 1 4 tcp 1040 ------- 1 0.0 2.0 32 49
- 2.044208 0 4 tcp 1040 ------- 1 0.0 2.0 33 50
d 2.044212 3 4 tcp 1040 ------- 1 0.0 2.0 33 50
d 2.044212 1 4 tcp 1040 ------- 1 0.0 2.0 33 50
+ 2.04654 2 4 ack 40 ------- 1 2.0 0.0 25 53
- 2.04654 2 4 ack 40 ------- 1 2.0 0.0 25 53
d 2.046544 3 4 ack 40 ------- 1 2.0 0.0 25 53
d 2.046544 1 4 ack 40 ------- 1 2.0 0.0 25 53
- 2.048624 0 4 tcp 1040 ------- 1 0.0 2.0 34 51
d 2.048628 3 4 tcp 1040 ------- 1 0.0 2.0 34 51
d 2.048628 1 4 tcp 1040 ------- 1 0.0 2.0 34 51
r 2.0533 4 2 tcp 1040 ------- 1 0.0 2.0 26 43
r 2.057716 4 2 tcp 1040 ------- 1 0.0 2.0 27 44
h 2.057716 2 4 ack 40 ------- 1 2.0 0.0 27 54
r 2.062132 4 2 tcp 1040 ------- 1 0.0 2.0 28 45
r 2.066548 4 2 tcp 1040 ------- 1 0.0 2.0 29 46
h 2.066548 2 4 ack 40 ------- 1 2.0 0.0 29 55
r 2.070964 4 2 tcp 1040 ------- 1 0.0 2.0 30 47
r 2.07538 4 2 tcp 1040 ------- 1 0.0 2.0 31 48
h 2.07538 2 4 ack 40 ------- 1 2.0 0.0 31 56
r 2.077712 4 0 ack 40 ------- 1 2.0 0.0 23 52
h 2.077712 0 4 tcp 1040 ------- 1 0.0 2.0 35 57
h 2.077712 0 4 tcp 1040 ------- 1 0.0 2.0 36 58
h 2.077712 0 4 tcp 1040 ------- 1 0.0 2.0 37 59
r 2.079796 4 2 tcp 1040 ------- 1 0.0 2.0 32 49
r 2.084212 4 2 tcp 1040 ------- 1 0.0 2.0 33 50
h 2.084212 2 4 ack 40 ------- 1 2.0 0.0 33 60
r 2.086544 4 0 ack 40 ------- 1 2.0 0.0 25 53
h 2.086544 0 4 tcp 1040 ------- 1 0.0 2.0 38 61
h 2.086544 0 4 tcp 1040 ------- 1 0.0 2.0 39 62
h 2.086544 0 4 tcp 1040 ------- 1 0.0 2.0 40 63
r 2.088628 4 2 tcp 1040 ------- 1 0.0 2.0 34 51
+ 2.097716 2 4 ack 40 ------- 1 2.0 0.0 27 54
- 2.097716 2 4 ack 40 ------- 1 2.0 0.0 27 54
d 2.09772 3 4 ack 40 ------- 1 2.0 0.0 27 54
d 2.09772 1 4 ack 40 ------- 1 2.0 0.0 27 54
h 2.1 1 4 cbr 1000 ------- 2 1.0 2.1 2 64
+ 2.106548 2 4 ack 40 ------- 1 2.0 0.0 29 55
- 2.106548 2 4 ack 40 ------- 1 2.0 0.0 29 55
d 2.106552 3 4 ack 40 ------- 1 2.0 0.0 29 55
d 2.106552 1 4 ack 40 ------- 1 2.0 0.0 29 55
+ 2.11538 2 4 ack 40 ------- 1 2.0 0.0 31 56
- 2.11538 2 4 ack 40 ------- 1 2.0 0.0 31 56
d 2.115384 3 4 ack 40 ------- 1 2.0 0.0 31 56
d 2.115384 1 4 ack 40 ------- 1 2.0 0.0 31 56
+ 2.117712 0 4 tcp 1040 ------- 1 0.0 2.0 35 57
- 2.117712 0 4 tcp 1040 ------- 1 0.0 2.0 35 57
+ 2.117712 0 4 tcp 1040 ------- 1 0.0 2.0 36 58
+ 2.117712 0 4 tcp 1040 ------- 1 0.0 2.0 37 59
d 2.117716 3 4 tcp 1040 ------- 1 0.0 2.0 35 57
d 2.117716 1 4 tcp 1040 ------- 1 0.0 2.0 35 57
- 2.122128 0 4 tcp 1040 ------- 1 0.0 2.0 36 58
d 2.122132 3 4 tcp 1040 ------- 1 0.0 2.0 36 58
d 2.122132 1 4 tcp 1040 ------- 1 0.0 2.0 36 58
+ 2.124212 2 4 ack 40 ------- 1 2.0 0.0 33 60
- 2.124212 2 4 ack 40 ------- 1 2.0 0.0 33 60
d 2.124216 3 4 ack 40 ------- 1 2.0 0.0 33 60
d 2.124216 1 4 ack 40 ------- 1 2.0 0.0 33 60
+ 2.126544 0 4 tcp 1040 ------- 1 0.0 2.0 38 61
+ 2.126544 0 4 tcp 1040 ------- 1 0.0 2.0 39 62
+ 2.126544 0 4 tcp 1040 ------- 1 0.0 2.0 40 63
- 2.126544 0 4 tcp 1040 ------- 1 0.0 2.0 37 59
d 2.126548 3 4 tcp 1040 ------- 1 0.0 2.0 37 59
d 2.126548 1 4 tcp 1040 ------- 1 0.0 2.0 37 59
- 2.13096 0 4 tcp 1040 ------- 1 0.0 2.0 38 61
d 2.130964 3 4 tcp 1040 ------- 1 0.0 2.0 38 61
d 2.130964 1 4 tcp 1040 ------- 1 0.0 2.0 38 61
- 2.135376 0 4 tcp 1040 ------- 1 0.0 2.0 39 62
d 2.13538 3 4 tcp 1040 ------- 1 0.0 2.0 39 62
d 2.13538 1 4 tcp 1040 ------- 1 0.0 2.0 39 62
r 2.13772 4 0 ack 40 ------- 1 2.0 0.0 27 54
h 2.13772 0 4 tcp 1040 ------- 1 0.0 2.0 41 65
h 2.13772 0 4 tcp 1040 ------- 1 0.0 2.0 42 66
h 2.13772 0 4 tcp 1040 ------- 1 0.0 2.0 43 67
- 2.139792 0 4 tcp 1040 ------- 1 0.0 2.0 40 63
d 2.139796 3 4 tcp 1040 ------- 1 0.0 2.0 40 63
d 2.139796 1 4 tcp 1040 ------- 1 0.0 2.0 40 63
+ 2.14 1 4 cbr 1000 ------- 2 1.0 2.1 2 64
- 2.14 1 4 cbr 1000 ------- 2 1.0 2.1 2 64
d 2.140004 3 4 cbr 1000 ------- 2 1.0 2.1 2 64
d 2.140004 0 4 cbr 1000 ------- 2 1.0 2.1 2 64
r 2.146552 4 0 ack 40 ------- 1 2.0 0.0 29 55
h 2.146552 0 4 tcp 1040 ------- 1 0.0 2.0 44 68
h 2.146552 0 4 tcp 1040 ------- 1 0.0 2.0 45 69
h 2.146552 0 4 tcp 1040 ------- 1 0.0 2.0 46 70
r 2.155384 4 0 ack 40 ------- 1 2.0 0.0 31 56
h 2.155384 0 4 tcp 1040 ------- 1 0.0 2.0 47 71
h 2.155384 0 4 tcp 1040 ------- 1 0.0 2.0 48 72
h 2.155384 0 4 tcp 1040 ------- 1 0.0 2.0 49 73
r 2.157716 4 2 tcp 1040 ------- 1 0.0 2.0 35 57
h 2.157716 2 4 ack 40 ------- 1 2.0 0.0 35 74
r 2.162132 4 2 tcp 1040 ------- 1 0.0 2.0 36 58
r 2.164216 4 0 ack 40 ------- 1 2.0 0.0 33 60
h 2.164216 0 4 tcp 1040 ------- 1 0.0 2.0 50 75
h 2.164216 0 4 tcp 1040 ------- 1 0.0 2.0 51 76
h 2.164216 0 4 tcp 1040 ------- 1 0.0 2.0 52 77
r 2.166548 4 2 tcp 1040 ------- 1 0.0 2.0 37 59
h 2.166548 2 4 ack 40 ------- 1 2.0 0.0 37 78
r 2.170964 4 2 tcp 1040 ------- 1 0.0 2.0 38 61
r 2.17538 4 2 tcp 1040 ------- 1 0.0 2.0 39 62
h 2.17538 2 4 ack 40 ------- 1 2.0 0.0 39 79
+ 2.17772 0 4 tcp 1040 ------- 1 0.0 2.0 41 65
- 2.17772 0 4 tcp 1040 ------- 1 0.0 2.0 41 65
+ 2.17772 0 4 tcp 1040 ------- 1 0.0 2.0 42 66
+ 2.17772 0 4 tcp 1040 ------- 1 0.0 2.0 43 67
d 2.177724 3 4 tcp 1040 ------- 1 0.0 2.0 41 65
d 2.177724 1 4 tcp 1040 ------- 1 0.0 2.0 41 65
r 2.179796 4 2 tcp 1040 ------- 1 0.0 2.0 40 63
r 2.180004 4 2 cbr 1000 ------- 2 1.0 2.1 2 64
- 2.182136 0 4 tcp 1040 ------- 1 0.0 2.0 42 66
d 2.18214 3 4 tcp 1040 ------- 1 0.0 2.0 42 66
d 2.18214 1 4 tcp 1040 ------- 1 0.0 2.0 42 66
+ 2.186552 0 4 tcp 1040 ------- 1 0.0 2.0 44 68
+ 2.186552 0 4 tcp 1040 ------- 1 0.0 2.0 45 69
+ 2.186552 0 4 tcp 1040 ------- 1 0.0 2.0 46 70
- 2.186552 0 4 tcp 1040 ------- 1 0.0 2.0 43 67
d 2.186556 3 4 tcp 1040 ------- 1 0.0 2.0 43 67
d 2.186556 1 4 tcp 1040 ------- 1 0.0 2.0 43 67
- 2.190968 0 4 tcp 1040 ------- 1 0.0 2.0 44 68
d 2.190972 3 4 tcp 1040 ------- 1 0.0 2.0 44 68
d 2.190972 1 4 tcp 1040 ------- 1 0.0 2.0 44 68
+ 2.195384 0 4 tcp 1040 ------- 1 0.0 2.0 47 71
+ 2.195384 0 4 tcp 1040 ------- 1 0.0 2.0 48 72
+ 2.195384 0 4 tcp 1040 ------- 1 0.0 2.0 49 73
- 2.195384 0 4 tcp 1040 ------- 1 0.0 2.0 45 69
d 2.195388 3 4 tcp 1040 ------- 1 0.0 2.0 45 69
d 2.195388 1 4 tcp 1040 ------- 1 0.0 2.0 45 69
+ 2.197716 2 4 ack 40 ------- 1 2.0 0.0 35 74
- 2.197716 2 4 ack 40 ------- 1 2.0 0.0 35 74
d 2.19772 3 4 ack 40 ------- 1 2.0 0.0 35 74
d 2.19772 1 4 ack 40 ------- 1 2.0 0.0 35 74
- 2.1998 0 4 tcp 1040 ------- 1 0.0 2.0 46 70
d 2.199804 3 4 tcp 1040 ------- 1 0.0 2.0 46 70
d 2.199804 1 4 tcp 1040 ------- 1 0.0 2.0 46 70
+ 2.204216 0 4 tcp 1040 ------- 1 0.0 2.0 50 75
+ 2.204216 0 4 tcp 1040 ------- 1 0.0 2.0 51 76
+ 2.204216 0 4 tcp 1040 ------- 1 0.0 2.0 52 77
- 2.204216 0 4 tcp 1040 ------- 1 0.0 2.0 47 71
d 2.20422 3 4 tcp 1040 ------- 1 0.0 2.0 47 71
d 2.20422 1 4 tcp 1040 ------- 1 0.0 2.0 47 71
+ 2.206548 2 4 ack 40 ------- 1 2.0 0.0 37 78
- 2.206548 2 4 ack 40 ------- 1 2.0 0.0 37 78
d 2.206552 3 4 ack 40 ------- 1 2.0 0.0 37 78
d 2.206552 1 4 ack 40 ------- 1 2.0 0.0 37 78
- 2.208632 0 4 tcp 1040 ------- 1 0.0 2.0 48 72
d 2.208636 3 4 tcp 1040 ------- 1 0.0 2.0 48 72
d 2.208636 1 4 tcp 1040 ------- 1 0.0 2.0 48 72
- 2.213048 0 4 tcp 1040 ------- 1 0.0 2.0 49 73
d 2.213052 3 4 tcp 1040 ------- 1 0.0 2.0 49 73
d 2.213052 1 4 tcp 1040 ------- 1 0.0 2.0 49 73
+ 2.21538 2 4 ack 40 ------- 1 2.0 0.0 39 79
- 2.21538 2 4 ack 40 ------- 1 2.0 0.0 39 79
d 2.215384 3 4 ack 40 ------- 1 2.0 0.0 39 79
d 2.215384 1 4 ack 40 ------- 1 2.0 0.0 39 79
- 2.217464 0 4 tcp 1040 ------- 1 0.0 2.0 50 75
d 2.217468 3 4 tcp 1040 ------- 1 0.0 2.0 50 75
d 2.217468 1 4 tcp 1040 ------- 1 0.0 2.0 50 75
r 2.217724 4 2 tcp 1040 ------- 1 0.0 2.0 41 65
h 2.217724 2 4 ack 40 ------- 1 2.0 0.0 41 80
- 2.22188 0 4 tcp 1040 ------- 1 0.0 2.0 51 76
d 2.221884 3 4 tcp 1040 ------- 1 0.0 2.0 51 76
d 2.221884 1 4 tcp 1040 ------- 1 0.0 2.0 51 76
r 2.22214 4 2 tcp 1040 ------- 1 0.0 2.0 42 66
- 2.226296 0 4 tcp 1040 ------- 1 0.0 2.0 52 77
d 2.2263 3 4 tcp 1040 ------- 1 0.0 2.0 52 77
d 2.2263 1 4 tcp 1040 ------- 1 0.0 2.0 52 77
r 2.226556 4 2 tcp 1040 ------- 1 0.0 2.0 43 67
h 2.226556 2 4 ack 40 ------- 1 2.0 0.0 43 81
r 2.230972 4 2 tcp 1040 ------- 1 0.0 2.0 44 68
r 2.235388 4 2 tcp 1040 ------- 1 0.0 2.0 45 69
h 2.235388 2 4 ack 40 ------- 1 2.0 0.0 45 82
r 2.23772 4 0 ack 40 ------- 1 2.0 0.0 35 74
h 2.23772 0 4 tcp 1040 ------- 1 0.0 2.0 53 83
h 2.23772 0 4 tcp 1040 ------- 1 0.0 2.0 54 84
h 2.23772 0 4 tcp 1040 ------- 1 0.0 2.0 55 85
r 2.239804 4 2 tcp 1040 ------- 1 0.0 2.0 46 70
r 2.24422 4 2 tcp 1040 ------- 1 0.0 2.0 47 71
h 2.24422 2 4 ack 40 ------- 1 2.0 0.0 47 86
r 2.246552 4 0 ack 40 ------- 1 2.0 0.0 37 78
h 2.246552 0 4 tcp 1040 ------- 1 0.0 2.0 56 87
h 2.246552 0 4 tcp 1040 ------- 1 0.0 2.0 57 88
r 2.248636 4 2 tcp 1040 ------- 1 0.0 2.0 48 72
r 2.253052 4 2 tcp 1040 ------- 1 0.0 2.0 49 73
h 2.253052 2 4 ack 40 ------- 1 2.0 0.0 49 89
r 2.255384 4 0 ack 40 ------- 1 2.0 0.0 39 79
h 2.255384 0 4 tcp 1040 ------- 1 0.0 2.0 58 90
h 2.255384 0 4 tcp 1040 ------- 1 0.0 2.0 59 91
r 2.257468 4 2 tcp 1040 ------- 1 0.0 2.0 50 75
+ 2.257724 2 4 ack 40 ------- 1 2.0 0.0 41 80
- 2.257724 2 4 ack 40 ------- 1 2.0 0.0 41 80
d 2.257728 3 4 ack 40 ------- 1 2.0 0.0 41 80
d 2.257728 1 4 ack 40 ------- 1 2.0 0.0 41 80
r 2.261884 4 2 tcp 1040 ------- 1 0.0 2.0 51 76
h 2.261884 2 4 ack 40 ------- 1 2.0 0.0 51 92
r 2.2663 4 2 tcp 1040 ------- 1 0.0 2.0 52 77
+ 2.266556 2 4 ack 40 ------- 1 2.0 0.0 43 81
- 2.266556 2 4 ack 40 ------- 1 2.0 0.0 43 81
d 2.26656 3 4 ack 40 ------- 1 2.0 0.0 43 81
d 2.26656 1 4 ack 40 ------- 1 2.0 0.0 43 81
+ 2.275388 2 4 ack 40 ------- 1 2.0 0.0 45 82
- 2.275388 2 4 ack 40 ------- 1 2.0 0.0 45 82
d 2.275392 3 4 ack 40 ------- 1 2.0 0.0 45 82
d 2.275392 1 4 ack 40 ------- 1 2.0 0.0 45 82
+ 2.27772 0 4 tcp 1040 ------- 1 0.0 2.0 53 83
- 2.27772 0 4 tcp 1040 ------- 1 0.0 2.0 53 83
+ 2.27772 0 4 tcp 1040 ------- 1 0.0 2.0 54 84
+ 2.27772 0 4 tcp 1040 ------- 1 0.0 2.0 55 85
d 2.277724 3 4 tcp 1040 ------- 1 0.0 2.0 53 83
d 2.277724 1 4 tcp 1040 ------- 1 0.0 2.0 53 83
- 2.282136 0 4 tcp 1040 ------- 1 0.0 2.0 54 84
d 2.28214 3 4 tcp 1040 ------- 1 0.0 2.0 54 84
d 2.28214 1 4 tcp 1040 ------- 1 0.0 2.0 54 84
+ 2.28422 2 4 ack 40 ------- 1 2.0 0.0 47 86
- 2.28422 2 4 ack 40 ------- 1 2.0 0.0 47 86
d 2.284224 3 4 ack 40 ------- 1 2.0 0.0 47 86
d 2.284224 1 4 ack 40 ------- 1 2.0 0.0 47 86
+ 2.286552 0 4 tcp 1040 ------- 1 0.0 2.0 56 87
+ 2.286552 0 4 tcp 1040 ------- 1 0.0 2.0 57 88
- 2.286552 0 4 tcp 1040 ------- 1 0.0 2.0 55 85
d 2.286556 3 4 tcp 1040 ------- 1 0.0 2.0 55 85
d 2.286556 1 4 tcp 1040 ------- 1 0.0 2.0 55 85
- 2.290968 0 4 tcp 1040 ------- 1 0.0 2.0 56 87
d 2.290972 3 4 tcp 1040 ------- 1 0.0 2.0 56 87
d 2.290972 1 4 tcp 1040 ------- 1 0.0 2.0 56 87
+ 2.293052 2 4 ack 40 ------- 1 2.0 0.0 49 89
- 2.293052 2 4 ack 40 ------- 1 2.0 0.0 49 89
d 2.293056 3 4 ack 40 ------- 1 2.0 0.0 49 89
d 2.293056 1 4 ack 40 ------- 1 2.0 0.0 49 89
+ 2.295384 0 4 tcp 1040 ------- 1 0.0 2.0 58 90
+ 2.295384 0 4 tcp 1040 ------- 1 0.0 2.0 59 91
- 2.295384 0 4 tcp 1040 ------- 1 0.0 2.0 57 88
d 2.295388 3 4 tcp 1040 ------- 1 0.0 2.0 57 88
d 2.295388 1 4 tcp 1040 ------- 1 0.0 2.0 57 88
r 2.297728 4 0 ack 40 ------- 1 2.0 0.0 41 80
h 2.297728 0 4 tcp 1040 ------- 1 0.0 2.0 60 93
h 2.297728 0 4 tcp 1040 ------- 1 0.0 2.0 61 94
- 2.2998 0 4 tcp 1040 ------- 1 0.0 2.0 58 90
d 2.299804 3 4 tcp 1040 ------- 1 0.0 2.0 58 90
d 2.299804 1 4 tcp 1040 ------- 1 0.0 2.0 58 90
+ 2.301884 2 4 ack 40 ------- 1 2.0 0.0 51 92
- 2.301884 2 4 ack 40 ------- 1 2.0 0.0 51 92
d 2.301888 3 4 ack 40 ------- 1 2.0 0.0 51 92
d 2.301888 1 4 ack 40 ------- 1 2.0 0.0 51 92
- 2.304216 0 4 tcp 1040 ------- 1 0.0 2.0 59 91
d 2.30422 3 4 tcp 1040 ------- 1 0.0 2.0 59 91
d 2.30422 1 4 tcp 1040 ------- 1 0.0 2.0 59 91
r 2.30656 4 0 ack 40 ------- 1 2.0 0.0 43 81
h 2.30656 0 4 tcp 1040 ------- 1 0.0 2.0 62 95
h 2.30656 0 4 tcp 1040 ------- 1 0.0 2.0 63 96
r 2.315392 4 0 ack 40 ------- 1 2.0 0.0 45 82
h 2.315392 0 4 tcp 1040 ------- 1 0.0 2.0 64 97
h 2.315392 0 4 tcp 1040 ------- 1 0.0 2.0 65 98
r 2.317724 4 2 tcp 1040 ------- 1 0.0 2.0 53 83
h 2.317724 2 4 ack 40 ------- 1 2.0 0.0 53 99
r 2.32214 4 2 tcp 1040 ------- 1 0.0 2.0 54 84
r 2.324224 4 0 ack 40 ------- 1 2.0 0.0 47 86
h 2.324224 0 4 tcp 1040 ------- 1 0.0 2.0 66 100
h 2.324224 0 4 tcp 1040 ------- 1 0.0 2.0 67 101
r 2.326556 4 2 tcp 1040 ------- 1 0.0 2.0 55 85
h 2.326556 2 4 ack 40 ------- 1 2.0 0.0 55 102
r 2.330972 4 2 tcp 1040 ------- 1 0.0 2.0 56 87
r 2.333056 4 0 ack 40 ------- 1 2.0 0.0 49 89
h 2.333056 0 4 tcp 1040 ------- 1 0.0 2.0 68 103
h 2.333056 0 4 tcp 1040 ------- 1 0.0 2.0 69 104
r 2.335388 4 2 tcp 1040 ------- 1 0.0 2.0 57 88
h 2.335388 2 4 ack 40 ------- 1 2.0 0.0 57 105
+ 2.337728 0 4 tcp 1040 ------- 1 0.0 2.0 60 93
- 2.337728 0 4 tcp 1040 ------- 1 0.0 2.0 60 93
+ 2.337728 0 4 tcp 1040 ------- 1 0.0 2.0 61 94
d 2.337732 3 4 tcp 1040 ------- 1 0.0 2.0 60 93
d 2.337732 1 4 tcp 1040 ------- 1 0.0 2.0 60 93
r 2.339804 4 2 tcp 1040 ------- 1 0.0 2.0 58 90
r 2.341888 4 0 ack 40 ------- 1 2.0 0.0 51 92
h 2.341888 0 4 tcp 1040 ------- 1 0.0 2.0 70 106
h 2.341888 0 4 tcp 1040 ------- 1 0.0 2.0 71 107
- 2.342144 0 4 tcp 1040 ------- 1 0.0 2.0 61 94
d 2.342148 3 4 tcp 1040 ------- 1 0.0 2.0 61 94
d 2.342148 1 4 tcp 1040 ------- 1 0.0 2.0 61 94
r 2.34422 4 2 tcp 1040 ------- 1 0.0 2.0 59 91
h 2.34422 2 4 ack 40 ------- 1 2.0 0.0 59 108
+ 2.34656 0 4 tcp 1040 ------- 1 0.0 2.0 62 95
+ 2.34656 0 4 tcp 1040 ------- 1 0.0 2.0 63 96
- 2.34656 0 4 tcp 1040 ------- 1 0.0 2.0 62 95
d 2.346564 3 4 tcp 1040 ------- 1 0.0 2.0 62 95
d 2.346564 1 4 tcp 1040 ------- 1 0.0 2.0 62 95
- 2.350976 0 4 tcp 1040 ------- 1 0.0 2.0 63 96
d 2.35098 3 4 tcp 1040 ------- 1 0.0 2.0 63 96
d 2.35098 1 4 tcp 1040 ------- 1 0.0 2.0 63 96
+ 2.355392 0 4 tcp 1040 ------- 1 0.0 2.0 64 97
+ 2.355392 0 4 tcp 1040 ------- 1 0.0 2.0 65 98
- 2.355392 0 4 tcp 1040 ------- 1 0.0 2.0 64 97
d 2.355396 3 4 tcp 1040 ------- 1 0.0 2.0 64 97
d 2.355396 1 4 tcp 1040 ------- 1 0.0 2.0 64 97
+ 2.357724 2 4 ack 40 ------- 1 2.0 0.0 53 99
- 2.357724 2 4 ack 40 ------- 1 2.0 0.0 53 99
d 2.357728 3 4 ack 40 ------- 1 2.0 0.0 53 99
d 2.357728 1 4 ack 40 ------- 1 2.0 0.0 53 99
- 2.359808 0 4 tcp 1040 ------- 1 0.0 2.0 65 98
d 2.359812 3 4 tcp 1040 ------- 1 0.0 2.0 65 98
d 2.359812 1 4 tcp 1040 ------- 1 0.0 2.0 65 98
+ 2.364224 0 4 tcp 1040 ------- 1 0.0 2.0 66 100
+ 2.364224 0 4 tcp 1040 ------- 1 0.0 2.0 67 101
- 2.364224 0 4 tcp 1040 ------- 1 0.0 2.0 66 100
d 2.364228 3 4 tcp 1040 ------- 1 0.0 2.0 66 100
d 2.364228 1 4 tcp 1040 ------- 1 0.0 2.0 66 100
+ 2.366556 2 4 ack 40 ------- 1 2.0 0.0 55 102
- 2.366556 2 4 ack 40 ------- 1 2.0 0.0 55 102
d 2.36656 3 4 ack 40 ------- 1 2.0 0.0 55 102
d 2.36656 1 4 ack 40 ------- 1 2.0 0.0 55 102
- 2.36864 0 4 tcp 1040 ------- 1 0.0 2.0 67 101
d 2.368644 3 4 tcp 1040 ------- 1 0.0 2.0 67 101
d 2.368644 1 4 tcp 1040 ------- 1 0.0 2.0 67 101
+ 2.373056 0 4 tcp 1040 ------- 1 0.0 2.0 68 103
+ 2.373056 0 4 tcp 1040 ------- 1 0.0 2.0 69 104
- 2.373056 0 4 tcp 1040 ------- 1 0.0 2.0 68 103
d 2.37306 3 4 tcp 1040 ------- 1 0.0 2.0 68 103
d 2.37306 1 4 tcp 1040 ------- 1 0.0 2.0 68 103
+ 2.375388 2 4 ack 40 ------- 1 2.0 0.0 57 105
- 2.375388 2 4 ack 40 ------- 1 2.0 0.0 57 105
d 2.375392 3 4 ack 40 ------- 1 2.0 0.0 57 105
d 2.375392 1 4 ack 40 ------- 1 2.0 0.0 57 105
- 2.377472 0 4 tcp 1040 ------- 1 0.0 2.0 69 104
d 2.377476 3 4 tcp 1040 ------- 1 0.0 2.0 69 104
d 2.377476 1 4 tcp 1040 ------- 1 0.0 2.0 69 104
r 2.377732 4 2 tcp 1040 ------- 1 0.0 2.0 60 93
+ 2.381888 0 4 tcp 1040 ------- 1 0.0 2.0 70 106
+ 2.381888 0 4 tcp 1040 ------- 1 0.0 2.0 71 107
- 2.381888 0 4 tcp 1040 ------- 1 0.0 2.0 70 106
d 2.381892 3 4 tcp 1040 ------- 1 0.0 2.0 70 106
d 2.381892 1 4 tcp 1040 ------- 1 0.0 2.0 70 106
r 2.382148 4 2 tcp 1040 ------- 1 0.0 2.0 61 94
h 2.382148 2 4 ack 40 ------- 1 2.0 0.0 61 109
+ 2.38422 2 4 ack 40 ------- 1 2.0 0.0 59 108
- 2.38422 2 4 ack 40 ------- 1 2.0 0.0 59 108
d 2.384224 3 4 ack 40 ------- 1 2.0 0.0 59 108
d 2.384224 1 4 ack 40 ------- 1 2.0 0.0 59 108
- 2.386304 0 4 tcp 1040 ------- 1 0.0 2.0 71 107
d 2.386308 3 4 tcp 1040 ------- 1 0.0 2.0 71 107
d 2.386308 1 4 tcp 1040 ------- 1 0.0 2.0 71 107