V -t * -v 1.0a5 -a 0
A -t * -n 1 -p 0 -o 0x7fffffff -c 30 -a 1
A -t * -h 1 -m 1073741823 -s 0
c -t * -i 1 -n Blue
c -t * -i 2 -n Green
n -t * -a 0 -s 0 -S UP -v box -c Green -i Green
n -t * -a 1 -s 1 -S UP -v circle -c black -i black
n -t * -a 2 -s 2 -S UP -v circle -c black -i black
n -t * -a 3 -s 3 -S UP -v circle -c black -i black
X -t * -n 4 -r 0.5Mb -D 40ms -o left
L -t * -s 4 -d 0 -o up
L -t * -s 4 -d 1 -o down
L -t * -s 4 -d 2 -o up
L -t * -s 4 -d 3 -o down
h -t 0.1 -s 0 -d 4 -p cbr -e 1000 -c 2 -i 0 -a 2 -x {0.1 3.0 0 ------- null}
+ -t 0.14 -s 0 -d 4 -p cbr -e 1000 -c 2 -i 0 -a 2 -x {0.1 3.0 0 ------- null}
- -t 0.14 -s 0 -d 4 -p cbr -e 1000 -c 2 -i 0 -a 2 -x {0.1 3.0 0 ------- null}
h -t 0.14 -s 0 -d 4 -p cbr -e 1000 -c 2 -i 0 -a 2 -x {0.1 3.0 -1 ------- null}
d -t 0.140004 -s 2 -d 4 -p cbr -e 1000 -c 2 -i 0 -a 2 -x {0.1 3.0 0 ------- null}
d -t 0.140004 -s 1 -d 4 -p cbr -e 1000 -c 2 -i 0 -a 2 -x {0.1 3.0 0 ------- null}
r -t 0.180004 -s 4 -d 3 -p cbr -e 1000 -c 2 -i 0 -a 2 -x {0.1 3.0 0 ------- null}
h -t 0.5 -s 1 -d 4 -p cbr -e 1000 -c 2 -i 1 -a 2 -x {1.0 2.1 0 ------- null}
+ -t 0.54 -s 1 -d 4 -p cbr -e 1000 -c 2 -i 1 -a 2 -x {1.0 2.1 0 ------- null}
- -t 0.54 -s 1 -d 4 -p cbr -e 1000 -c 2 -i 1 -a 2 -x {1.0 2.1 0 ------- null}
h -t 0.54 -s 1 -d 4 -p cbr -e 1000 -c 2 -i 1 -a 2 -x {1.0 2.1 -1 ------- null}
d -t 0.540004 -s 3 -d 4 -p cbr -e 1000 -c 2 -i 1 -a 2 -x {1.0 2.1 0 ------- null}
d -t 0.540004 -s 0 -d 4 -p cbr -e 1000 -c 2 -i 1 -a 2 -x {1.0 2.1 0 ------- null}
r -t 0.580004 -s 4 -d 2 -p cbr -e 1000 -c 2 -i 1 -a 2 -x {1.0 2.1 0 ------- null}
h -t 0.9 -s 0 -d 4 -p cbr -e 1000 -c 2 -i 2 -a 2 -x {0.1 3.0 1 ------- null}
+ -t 0.94 -s 0 -d 4 -p cbr -e 1000 -c 2 -i 2 -a 2 -x {0.1 3.0 1 ------- null}
- -t 0.94 -s 0 -d 4 -p cbr -e 1000 -c 2 -i 2 -a 2 -x {0.1 3.0 1 ------- null}
h -t 0.94 -s 0 -d 4 -p cbr -e 1000 -c 2 -i 2 -a 2 -x {0.1 3.0 -1 ------- null}
d -t 0.940004 -s 2 -d 4 -p cbr -e 1000 -c 2 -i 2 -a 2 -x {0.1 3.0 1 ------- null}
d -t 0.940004 -s 1 -d 4 -p cbr -e 1000 -c 2 -i 2 -a 2 -x {0.1 3.0 1 ------- null}
r -t 0.980004 -s 4 -d 3 -p cbr -e 1000 -c 2 -i 2 -a 2 -x {0.1 3.0 1 ------- null}
h -t 1 -s 0 -d 4 -p tcp -e 40 -c 1 -i 3 -a 1 -x {0.0 2.0 0 ------- null}
+ -t 1.04 -s 0 -d 4 -p tcp -e 40 -c 1 -i 3 -a 1 -x {0.0 2.0 0 ------- null}
- -t 1.04 -s 0 -d 4 -p tcp -e 40 -c 1 -i 3 -a 1 -x {0.0 2.0 0 ------- null}
h -t 1.04 -s 0 -d 4 -p tcp -e 40 -c 1 -i 3 -a 1 -x {0.0 2.0 -1 ------- null}
d -t 1.040004 -s 3 -d 4 -p tcp -e 40 -c 1 -i 3 -a 1 -x {0.0 2.0 0 ------- null}
d -t 1.040004 -s 1 -d 4 -p tcp -e 40 -c 1 -i 3 -a 1 -x {0.0 2.0 0 ------- null}
r -t 1.080004 -s 4 -d 2 -p tcp -e 40 -c 1 -i 3 -a 1 -x {0.0 2.0 0 ------- null}
h -t 1.080004 -s 2 -d 4 -p ack -e 40 -c 1 -i 4 -a 1 -x {2.0 0.0 0 ------- null}
+ -t 1.120004 -s 2 -d 4 -p ack -e 40 -c 1 -i 4 -a 1 -x {2.0 0.0 0 ------- null}
- -t 1.120004 -s 2 -d 4 -p ack -e 40 -c 1 -i 4 -a 1 -x {2.0 0.0 0 ------- null}
h -t 1.120004 -s 2 -d 4 -p ack -e 40 -c 1 -i 4 -a 1 -x {2.0 0.0 -1 ------- null}
d -t 1.120008 -s 3 -d 4 -p ack -e 40 -c 1 -i 4 -a 1 -x {2.0 0.0 0 ------- null}
d -t 1.120008 -s 1 -d 4 -p ack -e 40 -c 1 -i 4 -a 1 -x {2.0 0.0 0 ------- null}
r -t 1.160008 -s 4 -d 0 -p ack -e 40 -c 1 -i 4 -a 1 -x {2.0 0.0 0 ------- null}
h -t 1.160008 -s 0 -d 4 -p tcp -e 1040 -c 1 -i 5 -a 1 -x {0.0 2.0 1 ------- null}
h -t 1.160008 -s 0 -d 4 -p tcp -e 1040 -c 1 -i 6 -a 1 -x {0.0 2.0 2 ------- null}
+ -t 1.200008 -s 0 -d 4 -p tcp -e 1040 -c 1 -i 5 -a 1 -x {0.0 2.0 1 ------- null}
- -t 1.200008 -s 0 -d 4 -p tcp -e 1040 -c 1 -i 5 -a 1 -x {0.0 2.0 1 ------- null}
h -t 1.200008 -s 0 -d 4 -p tcp -e 1040 -c 1 -i 5 -a 1 -x {0.0 2.0 -1 ------- null}
+ -t 1.200008 -s 0 -d 4 -p tcp -e 1040 -c 1 -i 6 -a 1 -x {0.0 2.0 2 ------- null}
d -t 1.200012 -s 3 -d 4 -p tcp -e 1040 -c 1 -i 5 -a 1 -x {0.0 2.0 1 ------- null}
d -t 1.200012 -s 1 -d 4 -p tcp -e 1040 -c 1 -i 5 -a 1 -x {0.0 2.0 1 ------- null}
- -t 1.204424 -s 0 -d 4 -p tcp -e 1040 -c 1 -i 6 -a 1 -x {0.0 2.0 2 ------- null}
h -t 1.204424 -s 0 -d 4 -p tcp -e 1040 -c 1 -i 6 -a 1 -x {0.0 2.0 -1 ------- null}
d -t 1.204428 -s 3 -d 4 -p tcp -e 1040 -c 1 -i 6 -a 1 -x {0.0 2.0 2 ------- null}
d -t 1.204428 -s 1 -d 4 -p tcp -e 1040 -c 1 -i 6 -a 1 -x {0.0 2.0 2 ------- null}
r -t 1.240012 -s 4 -d 2 -p tcp -e 1040 -c 1 -i 5 -a 1 -x {0.0 2.0 1 ------- null}
r -t 1.244428 -s 4 -d 2 -p tcp -e 1040 -c 1 -i 6 -a 1 -x {0.0 2.0 2 ------- null}
h -t 1.244428 -s 2 -d 4 -p ack -e 40 -c 1 -i 7 -a 1 -x {2.0 0.0 2 ------- null}
+ -t 1.284428 -s 2 -d 4 -p ack -e 40 -c 1 -i 7 -a 1 -x {2.0 0.0 2 ------- null}
- -t 1.284428 -s 2 -d 4 -p ack -e 40 -c 1 -i 7 -a 1 -x {2.0 0.0 2 ------- null}
h -t 1.284428 -s 2 -d 4 -p ack -e 40 -c 1 -i 7 -a 1 -x {2.0 0.0 -1 ------- null}
d -t 1.284432 -s 3 -d 4 -p ack -e 40 -c 1 -i 7 -a 1 -x {2.0 0.0 2 ------- null}
d -t 1.284432 -s 1 -d 4 -p ack -e 40 -c 1 -i 7 -a 1 -x {2.0 0.0 2 ------- null}
h -t 1.3 -s 1 -d 4 -p cbr -e 1000 -c 2 -i 8 -a 2 -x {1.0 2.1 1 ------- null}
r -t 1.324432 -s 4 -d 0 -p ack -e 40 -c 1 -i 7 -a 1 -x {2.0 0.0 2 ------- null}
h -t 1.324432 -s 0 -d 4 -p tcp -e 1040 -c 1 -i 9 -a 1 -x {0.0 2.0 3 ------- null}
h -t 1.324432 -s 0 -d 4 -p tcp -e 1040 -c 1 -i 10 -a 1 -x {0.0 2.0 4 ------- null}
h -t 1.324432 -s 0 -d 4 -p tcp -e 1040 -c 1 -i 11 -a 1 -x {0.0 2.0 5 ------- null}
+ -t 1.34 -s 1 -d 4 -p cbr -e 1000 -c 2 -i 8 -a 2 -x {1.0 2.1 1 ------- null}
- -t 1.34 -s 1 -d 4 -p cbr -e 1000 -c 2 -i 8 -a 2 -x {1.0 2.1 1 ------- null}
h -t 1.34 -s 1 -d 4 -p cbr -e 1000 -c 2 -i 8 -a 2 -x {1.0 2.1 -1 ------- null}
d -t 1.340004 -s 3 -d 4 -p cbr -e 1000 -c 2 -i 8 -a 2 -x {1.0 2.1 1 ------- null}
d -t 1.340004 -s 0 -d 4 -p cbr -e 1000 -c 2 -i 8 -a 2 -x {1.0 2.1 1 ------- null}
+ -t 1.364432 -s 0 -d 4 -p tcp -e 1040 -c 1 -i 9 -a 1 -x {0.0 2.0 3 ------- null}
- -t 1.364432 -s 0 -d 4 -p tcp -e 1040 -c 1 -i 9 -a 1 -x {0.0 2.0 3 ------- null}
h -t 1.364432 -s 0 -d 4 -p tcp -e 1040 -c 1 -i 9 -a 1 -x {0.0 2.0 -1 ------- null}
+ -t 1.364432 -s 0 -d 4 -p tcp -e 1040 -c 1 -i 10 -a 1 -x {0.0 2.0 4 ------- null}
+ -t 1.364432 -s 0 -d 4 -p tcp -e 1040 -c 1 -i 11 -a 1 -x {0.0 2.0 5 ------- null}
d -t 1.364436 -s 3 -d 4 -p tcp -e 1040 -c 1 -i 9 -a 1 -x {0.0 2.0 3 ------- null}
d -t 1.364436 -s 1 -d 4 -p tcp -e 1040 -c 1 -i 9 -a 1 -x {0.0 2.0 3 ------- null}
- -t 1.368848 -s 0 -d 4 -p tcp -e 1040 -c 1 -i 10 -a 1 -x {0.0 2.0 4 ------- null}
h -t 1.368848 -s 0 -d 4 -p tcp -e 1040 -c 1 -i 10 -a 1 -x {0.0 2.0 -1 ------- null}
d -t 1.368852 -s 3 -d 4 -p tcp -e 1040 -c 1 -i 10 -a 1 -x {0.0 2.0 4 ------- null}
d -t 1.368852 -s 1 -d 4 -p tcp -e 1040 -c 1 -i 10 -a 1 -x {0.0 2.0 4 ------- null}
- -t 1.373264 -s 0 -d 4 -p tcp -e 1040 -c 1 -i 11 -a 1 -x {0.0 2.0 5 ------- null}
h -t 1.373264 -s 0 -d 4 -p tcp -e 1040 -c 1 -i 11 -a 1 -x {0.0 2.0 -1 ------- null}
d -t 1.373268 -s 3 -d 4 -p tcp -e 1040 -c 1 -i 11 -a 1 -x {0.0 2.0 5 ------- null}
d -t 1.373268 -s 1 -d 4 -p tcp -e 1040 -c 1 -i 11 -a 1 -x {0.0 2.0 5 ------- null}
r -t 1.380004 -s 4 -d 2 -p cbr -e 1000 -c 2 -i 8 -a 2 -x {1.0 2.1 1 ------- null}
r -t 1.404436 -s 4 -d 2 -p tcp -e 1040 -c 1 -i 9 -a 1 -x {0.0 2.0 3 ------- null}
r -t 1.408852 -s 4 -d 2 -p tcp -e 1040 -c 1 -i 10 -a 1 -x {0.0 2.0 4 ------- null}
h -t 1.408852 -s 2 -d 4 -p ack -e 40 -c 1 -i 12 -a 1 -x {2.0 0.0 4 ------- null}
r -t 1.413268 -s 4 -d 2 -p tcp -e 1040 -c 1 -i 11 -a 1 -x {0.0 2.0 5 ------- null}
+ -t 1.448852 -s 2 -d 4 -p ack -e 40 -c 1 -i 12 -a 1 -x {2.0 0.0 4 ------- null}
- -t 1.448852 -s 2 -d 4 -p ack -e 40 -c 1 -i 12 -a 1 -x {2.0 0.0 4 ------- null}
h -t 1.448852 -s 2 -d 4 -p ack -e 40 -c 1 -i 12 -a 1 -x {2.0 0.0 -1 ------- null}
d -t 1.448856 -s 3 -d 4 -p ack -e 40 -c 1 -i 12 -a 1 -x {2.0 0.0 4 ------- null}
d -t 1.448856 -s 1 -d 4 -p ack -e 40 -c 1 -i 12 -a 1 -x {2.0 0.0 4 ------- null}
r -t 1.488856 -s 4 -d 0 -p ack -e 40 -c 1 -i 12 -a 1 -x {2.0 0.0 4 ------- null}
h -t 1.488856 -s 0 -d 4 -p tcp -e 1040 -c 1 -i 13 -a 1 -x {0.0 2.0 6 ------- null}
h -t 1.488856 -s 0 -d 4 -p tcp -e 1040 -c 1 -i 14 -a 1 -x {0.0 2.0 7 ------- null}
h -t 1.488856 -s 0 -d 4 -p tcp -e 1040 -c 1 -i 15 -a 1 -x {0.0 2.0 8 ------- null}
h -t 1.513268 -s 2 -d 4 -p ack -e 40 -c 1 -i 16 -a 1 -x {2.0 0.0 5 ------- null}
+ -t 1.528856 -s 0 -d 4 -p tcp -e 1040 -c 1 -i 13 -a 1 -x {0.0 2.0 6 ------- null}
- -t 1.528856 -s 0 -d 4 -p tcp -e 1040 -c 1 -i 13 -a 1 -x {0.0 2.0 6 ------- null}
h -t 1.528856 -s 0 -d 4 -p tcp -e 1040 -c 1 -i 13 -a 1 -x {0.0 2.0 -1 ------- null}
+ -t 1.528856 -s 0 -d 4 -p tcp -e 1040 -c 1 -i 14 -a 1 -x {0.0 2.0 7 ------- null}
+ -t 1.528856 -s 0 -d 4 -p tcp -e 1040 -c 1 -i 15 -a 1 -x {0.0 2.0 8 ------- null}
d -t 1.52886 -s 3 -d 4 -p tcp -e 1040 -c 1 -i 13 -a 1 -x {0.0 2.0 6 ------- null}
d -t 1.52886 -s 1 -d 4 -p tcp -e 1040 -c 1 -i 13 -a 1 -x {0.0 2.0 6 ------- null}
- -t 1.533272 -s 0 -d 4 -p tcp -e 1040 -c 1 -i 14 -a 1 -x {0.0 2.0 7 ------- null}
h -t 1.533272 -s 0 -d 4 -p tcp -e 1040 -c 1 -i 14 -a 1 -x {0.0 2.0 -1 ------- null}
d -t 1.533276 -s 3 -d 4 -p tcp -e 1040 -c 1 -i 14 -a 1 -x {0.0 2.0 7 ------- null}
d -t 1.533276 -s 1 -d 4 -p tcp -e 1040 -c 1 -i 14 -a 1 -x {0.0 2.0 7 ------- null}
- -t 1.537688 -s 0 -d 4 -p tcp -e 1040 -c 1 -i 15 -a 1 -x {0.0 2.0 8 ------- null}
h -t 1.537688 -s 0 -d 4 -p tcp -e 1040 -c 1 -i 15 -a 1 -x {0.0 2.0 -1 ------- null}
d -t 1.537692 -s 3 -d 4 -p tcp -e 1040 -c 1 -i 15 -a 1 -x {0.0 2.0 8 ------- null}
d -t 1.537692 -s 1 -d 4 -p tcp -e 1040 -c 1 -i 15 -a 1 -x {0.0 2.0 8 ------- null}
+ -t 1.553268 -s 2 -d 4 -p ack -e 40 -c 1 -i 16 -a 1 -x {2.0 0.0 5 ------- null}
- -t 1.553268 -s 2 -d 4 -p ack -e 40 -c 1 -i 16 -a 1 -x {2.0 0.0 5 ------- null}
h -t 1.553268 -s 2 -d 4 -p ack -e 40 -c 1 -i 16 -a 1 -x {2.0 0.0 -1 ------- null}
d -t 1.553272 -s 3 -d 4 -p ack -e 40 -c 1 -i 16 -a 1 -x {2.0 0.0 5 ------- null}
d -t 1.553272 -s 1 -d 4 -p ack -e 40 -c 1 -i 16 -a 1 -x {2.0 0.0 5 ------- null}
r -t 1.56886 -s 4 -d 2 -p tcp -e 1040 -c 1 -i 13 -a 1 -x {0.0 2.0 6 ------- null}
r -t 1.573276 -s 4 -d 2 -p tcp -e 1040 -c 1 -i 14 -a 1 -x {0.0 2.0 7 ------- null}
h -t 1.573276 -s 2 -d 4 -p ack -e 40 -c 1 -i 17 -a 1 -x {2.0 0.0 7 ------- null}
r -t 1.577692 -s 4 -d 2 -p tcp -e 1040 -c 1 -i 15 -a 1 -x {0.0 2.0 8 ------- null}
r -t 1.593272 -s 4 -d 0 -p ack -e 40 -c 1 -i 16 -a 1 -x {2.0 0.0 5 ------- null}
h -t 1.593272 -s 0 -d 4 -p tcp -e 1040 -c 1 -i 18 -a 1 -x {0.0 2.0 9 ------- null}
h -t 1.593272 -s 0 -d 4 -p tcp -e 1040 -c 1 -i 19 -a 1 -x {0.0 2.0 10 ------- null}
+ -t 1.613276 -s 2 -d 4 -p ack -e 40 -c 1 -i 17 -a 1 -x {2.0 0.0 7 ------- null}
- -t 1.613276 -s 2 -d 4 -p ack -e 40 -c 1 -i 17 -a 1 -x {2.0 0.0 7 ------- null}
h -t 1.613276 -s 2 -d 4 -p ack -e 40 -c 1 -i 17 -a 1 -x {2.0 0.0 -1 ------- null}
d -t 1.61328 -s 3 -d 4 -p ack -e 40 -c 1 -i 17 -a 1 -x {2.0 0.0 7 ------- null}
d -t 1.61328 -s 1 -d 4 -p ack -e 40 -c 1 -i 17 -a 1 -x {2.0 0.0 7 ------- null}
+ -t 1.633272 -s 0 -d 4 -p tcp -e 1040 -c 1 -i 18 -a 1 -x {0.0 2.0 9 ------- null}
- -t 1.633272 -s 0 -d 4 -p tcp -e 1040 -c 1 -i 18 -a 1 -x {0.0 2.0 9 ------- null}
h -t 1.633272 -s 0 -d 4 -p tcp -e 1040 -c 1 -i 18 -a 1 -x {0.0 2.0 -1 ------- null}
+ -t 1.633272 -s 0 -d 4 -p tcp -e 1040 -c 1 -i 19 -a 1 -x {0.0 2.0 10 ------- null}
d -t 1.633276 -s 3 -d 4 -p tcp -e 1040 -c 1 -i 18 -a 1 -x {0.0 2.0 9 ------- null}
d -t 1.633276 -s 1 -d 4 -p tcp -e 1040 -c 1 -i 18 -a 1 -x {0.0 2.0 9 ------- null}
- -t 1.637688 -s 0 -d 4 -p tcp -e 1040 -c 1 -i 19 -a 1 -x {0.0 2.0 10 ------- null}
h -t 1.637688 -s 0 -d 4 -p tcp -e 1040 -c 1 -i 19 -a 1 -x {0.0 2.0 -1 ------- null}
d -t 1.637692 -s 3 -d 4 -p tcp -e 1040 -c 1 -i 19 -a 1 -x {0.0 2.0 10 ------- null}
d -t 1.637692 -s 1 -d 4 -p tcp -e 1040 -c 1 -i 19 -a 1 -x {0.0 2.0 10 ------- null}
r -t 1.65328 -s 4 -d 0 -p ack -e 40 -c 1 -i 17 -a 1 -x {2.0 0.0 7 ------- null}
h -t 1.65328 -s 0 -d 4 -p tcp -e 1040 -c 1 -i 20 -a 1 -x {0.0 2.0 11 ------- null}
h -t 1.65328 -s 0 -d 4 -p tcp -e 1040 -c 1 -i 21 -a 1 -x {0.0 2.0 12 ------- null}
h -t 1.65328 -s 0 -d 4 -p tcp -e 1040 -c 1 -i 22 -a 1 -x {0.0 2.0 13 ------- null}
r -t 1.673276 -s 4 -d 2 -p tcp -e 1040 -c 1 -i 18 -a 1 -x {0.0 2.0 9 ------- null}
h -t 1.673276 -s 2 -d 4 -p ack -e 40 -c 1 -i 23 -a 1 -x {2.0 0.0 9 ------- null}
r -t 1.677692 -s 4 -d 2 -p tcp -e 1040 -c 1 -i 19 -a 1 -x {0.0 2.0 10 ------- null}
+ -t 1.69328 -s 0 -d 4 -p tcp -e 1040 -c 1 -i 20 -a 1 -x {0.0 2.0 11 ------- null}
- -t 1.69328 -s 0 -d 4 -p tcp -e 1040 -c 1 -i 20 -a 1 -x {0.0 2.0 11 ------- null}
h -t 1.69328 -s 0 -d 4 -p tcp -e 1040 -c 1 -i 20 -a 1 -x {0.0 2.0 -1 ------- null}
+ -t 1.69328 -s 0 -d 4 -p tcp -e 1040 -c 1 -i 21 -a 1 -x {0.0 2.0 12 ------- null}
+ -t 1.69328 -s 0 -d 4 -p tcp -e 1040 -c 1 -i 22 -a 1 -x {0.0 2.0 13 ------- null}
d -t 1.693284 -s 3 -d 4 -p tcp -e 1040 -c 1 -i 20 -a 1 -x {0.0 2.0 11 ------- null}
d -t 1.693284 -s 1 -d 4 -p tcp -e 1040 -c 1 -i 20 -a 1 -x {0.0 2.0 11 ------- null}
- -t 1.697696 -s 0 -d 4 -p tcp -e 1040 -c 1 -i 21 -a 1 -x {0.0 2.0 12 ------- null}
h -t 1.697696 -s 0 -d 4 -p tcp -e 1040 -c 1 -i 21 -a 1 -x {0.0 2.0 -1 ------- null}
d -t 1.6977 -s 3 -d 4 -p tcp -e 1040 -c 1 -i 21 -a 1 -x {0.0 2.0 12 ------- null}
d -t 1.6977 -s 1 -d 4 -p tcp -e 1040 -c 1 -i 21 -a 1 -x {0.0 2.0 12 ------- null}
h -t 1.7 -s 0 -d 4 -p cbr -e 1000 -c 2 -i 24 -a 2 -x {0.1 3.0 2 ------- null}
- -t 1.702112 -s 0 -d 4 -p tcp -e 1040 -c 1 -i 22 -a 1 -x {0.0 2.0 13 ------- null}
h -t 1.702112 -s 0 -d 4 -p tcp -e 1040 -c 1 -i 22 -a 1 -x {0.0 2.0 -1 ------- null}
d -t 1.702116 -s 3 -d 4 -p tcp -e 1040 -c 1 -i 22 -a 1 -x {0.0 2.0 13 ------- null}
d -t 1.702116 -s 1 -d 4 -p tcp -e 1040 -c 1 -i 22 -a 1 -x {0.0 2.0 13 ------- null}
+ -t 1.713276 -s 2 -d 4 -p ack -e 40 -c 1 -i 23 -a 1 -x {2.0 0.0 9 ------- null}
- -t 1.713276 -s 2 -d 4 -p ack -e 40 -c 1 -i 23 -a 1 -x {2.0 0.0 9 ------- null}
h -t 1.713276 -s 2 -d 4 -p ack -e 40 -c 1 -i 23 -a 1 -x {2.0 0.0 -1 ------- null}
d -t 1.71328 -s 3 -d 4 -p ack -e 40 -c 1 -i 23 -a 1 -x {2.0 0.0 9 ------- null}
d -t 1.71328 -s 1 -d 4 -p ack -e 40 -c 1 -i 23 -a 1 -x {2.0 0.0 9 ------- null}
r -t 1.733284 -s 4 -d 2 -p tcp -e 1040 -c 1 -i 20 -a 1 -x {0.0 2.0 11 ------- null}
h -t 1.733284 -s 2 -d 4 -p ack -e 40 -c 1 -i 25 -a 1 -x {2.0 0.0 11 ------- null}
r -t 1.7377 -s 4 -d 2 -p tcp -e 1040 -c 1 -i 21 -a 1 -x {0.0 2.0 12 ------- null}
+ -t 1.74 -s 0 -d 4 -p cbr -e 1000 -c 2 -i 24 -a 2 -x {0.1 3.0 2 ------- null}
- -t 1.74 -s 0 -d 4 -p cbr -e 1000 -c 2 -i 24 -a 2 -x {0.1 3.0 2 ------- null}
h -t 1.74 -s 0 -d 4 -p cbr -e 1000 -c 2 -i 24 -a 2 -x {0.1 3.0 -1 ------- null}
d -t 1.740004 -s 2 -d 4 -p cbr -e 1000 -c 2 -i 24 -a 2 -x {0.1 3.0 2 ------- null}
d -t 1.740004 -s 1 -d 4 -p cbr -e 1000 -c 2 -i 24 -a 2 -x {0.1 3.0 2 ------- null}
r -t 1.742116 -s 4 -d 2 -p tcp -e 1040 -c 1 -i 22 -a 1 -x {0.0 2.0 13 ------- null}
h -t 1.742116 -s 2 -d 4 -p ack -e 40 -c 1 -i 26 -a 1 -x {2.0 0.0 13 ------- null}
r -t 1.75328 -s 4 -d 0 -p ack -e 40 -c 1 -i 23 -a 1 -x {2.0 0.0 9 ------- null}
h -t 1.75328 -s 0 -d 4 -p tcp -e 1040 -c 1 -i 27 -a 1 -x {0.0 2.0 14 ------- null}
h -t 1.75328 -s 0 -d 4 -p tcp -e 1040 -c 1 -i 28 -a 1 -x {0.0 2.0 15 ------- null}
h -t 1.75328 -s 0 -d 4 -p tcp -e 1040 -c 1 -i 29 -a 1 -x {0.0 2.0 16 ------- null}
+ -t 1.773284 -s 2 -d 4 -p ack -e 40 -c 1 -i 25 -a 1 -x {2.0 0.0 11 ------- null}
- -t 1.773284 -s 2 -d 4 -p ack -e 40 -c 1 -i 25 -a 1 -x {2.0 0.0 11 ------- null}
h -t 1.773284 -s 2 -d 4 -p ack -e 40 -c 1 -i 25 -a 1 -x {2.0 0.0 -1 ------- null}
d -t 1.773288 -s 3 -d 4 -p ack -e 40 -c 1 -i 25 -a 1 -x {2.0 0.0 11 ------- null}
d -t 1.773288 -s 1 -d 4 -p ack -e 40 -c 1 -i 25 -a 1 -x {2.0 0.0 11 ------- null}
r -t 1.780004 -s 4 -d 3 -p cbr -e 1000 -c 2 -i 24 -a 2 -x {0.1 3.0 2 ------- null}
+ -t 1.782116 -s 2 -d 4 -p ack -e 40 -c 1 -i 26 -a 1 -x {2.0 0.0 13 ------- null}
- -t 1.782116 -s 2 -d 4 -p ack -e 40 -c 1 -i 26 -a 1 -x {2.0 0.0 13 ------- null}
h -t 1.782116 -s 2 -d 4 -p ack -e 40 -c 1 -i 26 -a 1 -x {2.0 0.0 -1 ------- null}
d -t 1.78212 -s 3 -d 4 -p ack -e 40 -c 1 -i 26 -a 1 -x {2.0 0.0 13 ------- null}
d -t 1.78212 -s 1 -d 4 -p ack -e 40 -c 1 -i 26 -a 1 -x {2.0 0.0 13 ------- null}
+ -t 1.79328 -s 0 -d 4 -p tcp -e 1040 -c 1 -i 27 -a 1 -x {0.0 2.0 14 ------- null}
- -t 1.79328 -s 0 -d 4 -p tcp -e 1040 -c 1 -i 27 -a 1 -x {0.0 2.0 14 ------- null}
h -t 1.79328 -s 0 -d 4 -p tcp -e 1040 -c 1 -i 27 -a 1 -x {0.0 2.0 -1 ------- null}
+ -t 1.79328 -s 0 -d 4 -p tcp -e 1040 -c 1 -i 28 -a 1 -x {0.0 2.0 15 ------- null}
+ -t 1.79328 -s 0 -d 4 -p tcp -e 1040 -c 1 -i 29 -a 1 -x {0.0 2.0 16 ------- null}
d -t 1.793284 -s 3 -d 4 -p tcp -e 1040 -c 1 -i 27 -a 1 -x {0.0 2.0 14 ------- null}
d -t 1.793284 -s 1 -d 4 -p tcp -e 1040 -c 1 -i 27 -a 1 -x {0.0 2.0 14 ------- null}
- -t 1.797696 -s 0 -d 4 -p tcp -e 1040 -c 1 -i 28 -a 1 -x {0.0 2.0 15 ------- null}
h -t 1.797696 -s 0 -d 4 -p tcp -e 1040 -c 1 -i 28 -a 1 -x {0.0 2.0 -1 ------- null}
d -t 1.7977 -s 3 -d 4 -p tcp -e 1040 -c 1 -i 28 -a 1 -x {0.0 2.0 15 ------- null}
d -t 1.7977 -s 1 -d 4 -p tcp -e 1040 -c 1 -i 28 -a 1 -x {0.0 2.0 15 ------- null}
- -t 1.802112 -s 0 -d 4 -p tcp -e 1040 -c 1 -i 29 -a 1 -x {0.0 2.0 16 ------- null}
h -t 1.802112 -s 0 -d 4 -p tcp -e 1040 -c 1 -i 29 -a 1 -x {0.0 2.0 -1 ------- null}
d -t 1.802116 -s 3 -d 4 -p tcp -e 1040 -c 1 -i 29 -a 1 -x {0.0 2.0 16 ------- null}
d -t 1.802116 -s 1 -d 4 -p tcp -e 1040 -c 1 -i 29 -a 1 -x {0.0 2.0 16 ------- null}
r -t 1.813288 -s 4 -d 0 -p ack -e 40 -c 1 -i 25 -a 1 -x {2.0 0.0 11 ------- null}
h -t 1.813288 -s 0 -d 4 -p tcp -e 1040 -c 1 -i 30 -a 1 -x {0.0 2.0 17 ------- null}
h -t 1.813288 -s 0 -d 4 -p tcp -e 1040 -c 1 -i 31 -a 1 -x {0.0 2.0 18 ------- null}
h -t 1.813288 -s 0 -d 4 -p tcp -e 1040 -c 1 -i 32 -a 1 -x {0.0 2.0 19 ------- null}
r -t 1.82212 -s 4 -d 0 -p ack -e 40 -c 1 -i 26 -a 1 -x {2.0 0.0 13 ------- null}
h -t 1.82212 -s 0 -d 4 -p tcp -e 1040 -c 1 -i 33 -a 1 -x {0.0 2.0 20 ------- null}
h -t 1.82212 -s 0 -d 4 -p tcp -e 1040 -c 1 -i 34 -a 1 -x {0.0 2.0 21 ------- null}
h -t 1.82212 -s 0 -d 4 -p tcp -e 1040 -c 1 -i 35 -a 1 -x {0.0 2.0 22 ------- null}
r -t 1.833284 -s 4 -d 2 -p tcp -e 1040 -c 1 -i 27 -a 1 -x {0.0 2.0 14 ------- null}
r -t 1.8377 -s 4 -d 2 -p tcp -e 1040 -c 1 -i 28 -a 1 -x {0.0 2.0 15 ------- null}
h -t 1.8377 -s 2 -d 4 -p ack -e 40 -c 1 -i 36 -a 1 -x {2.0 0.0 15 ------- null}
r -t 1.842116 -s 4 -d 2 -p tcp -e 1040 -c 1 -i 29 -a 1 -x {0.0 2.0 16 ------- null}
+ -t 1.853288 -s 0 -d 4 -p tcp -e 1040 -c 1 -i 30 -a 1 -x {0.0 2.0 17 ------- null}
- -t 1.853288 -s 0 -d 4 -p tcp -e 1040 -c 1 -i 30 -a 1 -x {0.0 2.0 17 ------- null}
h -t 1.853288 -s 0 -d 4 -p tcp -e 1040 -c 1 -i 30 -a 1 -x {0.0 2.0 -1 ------- null}
+ -t 1.853288 -s 0 -d 4 -p tcp -e 1040 -c 1 -i 31 -a 1 -x {0.0 2.0 18 ------- null}
+ -t 1.853288 -s 0 -d 4 -p tcp -e 1040 -c 1 -i 32 -a 1 -x {0.0 2.0 19 ------- null}
d -t 1.853292 -s 3 -d 4 -p tcp -e 1040 -c 1 -i 30 -a 1 -x {0.0 2.0 17 ------- null}
d -t 1.853292 -s 1 -d 4 -p tcp -e 1040 -c 1 -i 30 -a 1 -x {0.0 2.0 17 ------- null}
- -t 1.857704 -s 0 -d 4 -p tcp -e 1040 -c 1 -i 31 -a 1 -x {0.0 2.0 18 ------- null}
h -t 1.857704 -s 0 -d 4 -p tcp -e 1040 -c 1 -i 31 -a 1 -x {0.0 2.0 -1 ------- null}
d -t 1.857708 -s 3 -d 4 -p tcp -e 1040 -c 1 -i 31 -a 1 -x {0.0 2.0 18 ------- null}
d -t 1.857708 -s 1 -d 4 -p tcp -e 1040 -c 1 -i 31 -a 1 -x {0.0 2.0 18 ------- null}
+ -t 1.86212 -s 0 -d 4 -p tcp -e 1040 -c 1 -i 33 -a 1 -x {0.0 2.0 20 ------- null}
+ -t 1.86212 -s 0 -d 4 -p tcp -e 1040 -c 1 -i 34 -a 1 -x {0.0 2.0 21 ------- null}
+ -t 1.86212 -s 0 -d 4 -p tcp -e 1040 -c 1 -i 35 -a 1 -x {0.0 2.0 22 ------- null}
- -t 1.86212 -s 0 -d 4 -p tcp -e 1040 -c 1 -i 32 -a 1 -x {0.0 2.0 19 ------- null}
h -t 1.86212 -s 0 -d 4 -p tcp -e 1040 -c 1 -i 32 -a 1 -x {0.0 2.0 -1 ------- null}
d -t 1.862124 -s 3 -d 4 -p tcp -e 1040 -c 1 -i 32 -a 1 -x {0.0 2.0 19 ------- null}
d -t 1.862124 -s 1 -d 4 -p tcp -e 1040 -c 1 -i 32 -a 1 -x {0.0 2.0 19 ------- null}
- -t 1.866536 -s 0 -d 4 -p tcp -e 1040 -c 1 -i 33 -a 1 -x {0.0 2.0 20 ------- null}
h -t 1.866536 -s 0 -d 4 -p tcp -e 1040 -c 1 -i 33 -a 1 -x {0.0 2.0 -1 ------- null}
d -t 1.86654 -s 3 -d 4 -p tcp -e 1040 -c 1 -i 33 -a 1 -x {0.0 2.0 20 ------- null}
d -t 1.86654 -s 1 -d 4 -p tcp -e 1040 -c 1 -i 33 -a 1 -x {0.0 2.0 20 ------- null}
- -t 1.870952 -s 0 -d 4 -p tcp -e 1040 -c 1 -i 34 -a 1 -x {0.0 2.0 21 ------- null}
h -t 1.870952 -s 0 -d 4 -p tcp -e 1040 -c 1 -i 34 -a 1 -x {0.0 2.0 -1 ------- null}
d -t 1.870956 -s 3 -d 4 -p tcp -e 1040 -c 1 -i 34 -a 1 -x {0.0 2.0 21 ------- null}
d -t 1.870956 -s 1 -d 4 -p tcp -e 1040 -c 1 -i 34 -a 1 -x {0.0 2.0 21 ------- null}
- -t 1.875368 -s 0 -d 4 -p tcp -e 1040 -c 1 -i 35 -a 1 -x {0.0 2.0 22 ------- null}
h -t 1.875368 -s 0 -d 4 -p tcp -e 1040 -c 1 -i 35 -a 1 -x {0.0 2.0 -1 ------- null}
d -t 1.875372 -s 3 -d 4 -p tcp -e 1040 -c 1 -i 35 -a 1 -x {0.0 2.0 22 ------- null}
d -t 1.875372 -s 1 -d 4 -p tcp -e 1040 -c 1 -i 35 -a 1 -x {0.0 2.0 22 ------- null}
+ -t 1.8777 -s 2 -d 4 -p ack -e 40 -c 1 -i 36 -a 1 -x {2.0 0.0 15 ------- null}
- -t 1.8777 -s 2 -d 4 -p ack -e 40 -c 1 -i 36 -a 1 -x {2.0 0.0 15 ------- null}
h -t 1.8777 -s 2 -d 4 -p ack -e 40 -c 1 -i 36 -a 1 -x {2.0 0.0 -1 ------- null}
d -t 1.877704 -s 3 -d 4 -p ack -e 40 -c 1 -i 36 -a 1 -x {2.0 0.0 15 ------- null}
d -t 1.877704 -s 1 -d 4 -p ack -e 40 -c 1 -i 36 -a 1 -x {2.0 0.0 15 ------- null}
r -t 1.893292 -s 4 -d 2 -p tcp -e 1040 -c 1 -i 30 -a 1 -x {0.0 2.0 17 ------- null}
h -t 1.893292 -s 2 -d 4 -p ack -e 40 -c 1 -i 37 -a 1 -x {2.0 0.0 17 ------- null}
r -t 1.897708 -s 4 -d 2 -p tcp -e 1040 -c 1 -i 31 -a 1 -x {0.0 2.0 18 ------- null}
r -t 1.902124 -s 4 -d 2 -p tcp -e 1040 -c 1 -i 32 -a 1 -x {0.0 2.0 19 ------- null}
h -t 1.902124 -s 2 -d 4 -p ack -e 40 -c 1 -i 38 -a 1 -x {2.0 0.0 19 ------- null}
r -t 1.90654 -s 4 -d 2 -p tcp -e 1040 -c 1 -i 33 -a 1 -x {0.0 2.0 20 ------- null}
r -t 1.910956 -s 4 -d 2 -p tcp -e 1040 -c 1 -i 34 -a 1 -x {0.0 2.0 21 ------- null}
h -t 1.910956 -s 2 -d 4 -p ack -e 40 -c 1 -i 39 -a 1 -x {2.0 0.0 21 ------- null}
r -t 1.915372 -s 4 -d 2 -p tcp -e 1040 -c 1 -i 35 -a 1 -x {0.0 2.0 22 ------- null}
r -t 1.917704 -s 4 -d 0 -p ack -e 40 -c 1 -i 36 -a 1 -x {2.0 0.0 15 ------- null}
h -t 1.917704 -s 0 -d 4 -p tcp -e 1040 -c 1 -i 40 -a 1 -x {0.0 2.0 23 ------- null}
h -t 1.917704 -s 0 -d 4 -p tcp -e 1040 -c 1 -i 41 -a 1 -x {0.0 2.0 24 ------- null}
h -t 1.917704 -s 0 -d 4 -p tcp -e 1040 -c 1 -i 42 -a 1 -x {0.0 2.0 25 ------- null}
+ -t 1.933292 -s 2 -d 4 -p ack -e 40 -c 1 -i 37 -a 1 -x {2.0 0.0 17 ------- null}
- -t 1.933292 -s 2 -d 4 -p ack -e 40 -c 1 -i 37 -a 1 -x {2.0 0.0 17 ------- null}
h -t 1.933292 -s 2 -d 4 -p ack -e 40 -c 1 -i 37 -a 1 -x {2.0 0.0 -1 ------- null}
d -t 1.933296 -s 3 -d 4 -p ack -e 40 -c 1 -i 37 -a 1 -x {2.0 0.0 17 ------- null}
d -t 1.933296 -s 1 -d 4 -p ack -e 40 -c 1 -i 37 -a 1 -x {2.0 0.0 17 ------- null}
+ -t 1.942124 -s 2 -d 4 -p ack -e 40 -c 1 -i 38 -a 1 -x {2.0 0.0 19 ------- null}
- -t 1.942124 -s 2 -d 4 -p ack -e 40 -c 1 -i 38 -a 1 -x {2.0 0.0 19 ------- null}
h -t 1.942124 -s 2 -d 4 -p ack -e 40 -c 1 -i 38 -a 1 -x {2.0 0.0 -1 ------- null}
d -t 1.942128 -s 3 -d 4 -p ack -e 40 -c 1 -i 38 -a 1 -x {2.0 0.0 19 ------- null}
d -t 1.942128 -s 1 -d 4 -p ack -e 40 -c 1 -i 38 -a 1 -x {2.0 0.0 19 ------- null}
+ -t 1.950956 -s 2 -d 4 -p ack -e 40 -c 1 -i 39 -a 1 -x {2.0 0.0 21 ------- null}
- -t 1.950956 -s 2 -d 4 -p ack -e 40 -c 1 -i 39 -a 1 -x {2.0 0.0 21 ------- null}
h -t 1.950956 -s 2 -d 4 -p ack -e 40 -c 1 -i 39 -a 1 -x {2.0 0.0 -1 ------- null}
d -t 1.95096 -s 3 -d 4 -p ack -e 40 -c 1 -i 39 -a 1 -x {2.0 0.0 21 ------- null}
d -t 1.95096 -s 1 -d 4 -p ack -e 40 -c 1 -i 39 -a 1 -x {2.0 0.0 21 ------- null}
+ -t 1.957704 -s 0 -d 4 -p tcp -e 1040 -c 1 -i 40 -a 1 -x {0.0 2.0 23 ------- null}
- -t 1.957704 -s 0 -d 4 -p tcp -e 1040 -c 1 -i 40 -a 1 -x {0.0 2.0 23 ------- null}
h -t 1.957704 -s 0 -d 4 -p tcp -e 1040 -c 1 -i 40 -a 1 -x {0.0 2.0 -1 ------- null}
+ -t 1.957704 -s 0 -d 4 -p tcp -e 1040 -c 1 -i 41 -a 1 -x {0.0 2.0 24 ------- null}
+ -t 1.957704 -s 0 -d 4 -p tcp -e 1040 -c 1 -i 42 -a 1 -x {0.0 2.0 25 ------- null}
d -t 1.957708 -s 3 -d 4 -p tcp -e 1040 -c 1 -i 40 -a 1 -x {0.0 2.0 23 ------- null}
d -t 1.957708 -s 1 -d 4 -p tcp -e 1040 -c 1 -i 40 -a 1 -x {0.0 2.0 23 ------- null}
- -t 1.96212 -s 0 -d 4 -p tcp -e 1040 -c 1 -i 41 -a 1 -x {0.0 2.0 24 ------- null}
h -t 1.96212 -s 0 -d 4 -p tcp -e 1040 -c 1 -i 41 -a 1 -x {0.0 2.0 -1 ------- null}
d -t 1.962124 -s 3 -d 4 -p tcp -e 1040 -c 1 -i 41 -a 1 -x {0.0 2.0 24 ------- null}
d -t 1.962124 -s 1 -d 4 -p tcp -e 1040 -c 1 -i 41 -a 1 -x {0.0 2.0 24 ------- null}
- -t 1.966536 -s 0 -d 4 -p tcp -e 1040 -c 1 -i 42 -a 1 -x {0.0 2.0 25 ------- null}
h -t 1.966536 -s 0 -d 4 -p tcp -e 1040 -c 1 -i 42 -a 1 -x {0.0 2.0 -1 ------- null}
d -t 1.96654 -s 3 -d 4 -p tcp -e 1040 -c 1 -i 42 -a 1 -x {0.0 2.0 25 ------- null}
d -t 1.96654 -s 1 -d 4 -p tcp -e 1040 -c 1 -i 42 -a 1 -x {0.0 2.0 25 ------- null}
r -t 1.973296 -s 4 -d 0 -p ack -e 40 -c 1 -i 37 -a 1 -x {2.0 0.0 17 ------- null}
h -t 1.973296 -s 0 -d 4 -p tcp -e 1040 -c 1 -i 43 -a 1 -x {0.0 2.0 26 ------- null}
h -t 1.973296 -s 0 -d 4 -p tcp -e 1040 -c 1 -i 44 -a 1 -x {0.0 2.0 27 ------- null}
h -t 1.973296 -s 0 -d 4 -p tcp -e 1040 -c 1 -i 45 -a 1 -x {0.0 2.0 28 ------- null}
r -t 1.982128 -s 4 -d 0 -p ack -e 40 -c 1 -i 38 -a 1 -x {2.0 0.0 19 ------- null}
h -t 1.982128 -s 0 -d 4 -p tcp -e 1040 -c 1 -i 46 -a 1 -x {0.0 2.0 29 ------- null}
h -t 1.982128 -s 0 -d 4 -p tcp -e 1040 -c 1 -i 47 -a 1 -x {0.0 2.0 30 ------- null}
h -t 1.982128 -s 0 -d 4 -p tcp -e 1040 -c 1 -i 48 -a 1 -x {0.0 2.0 31 ------- null}
r -t 1.99096 -s 4 -d 0 -p ack -e 40 -c 1 -i 39 -a 1 -x {2.0 0.0 21 ------- null}
h -t 1.99096 -s 0 -d 4 -p tcp -e 1040 -c 1 -i 49 -a 1 -x {0.0 2.0 32 ------- null}
h -t 1.99096 -s 0 -d 4 -p tcp -e 1040 -c 1 -i 50 -a 1 -x {0.0 2.0 33 ------- null}
h -t 1.99096 -s 0 -d 4 -p tcp -e 1040 -c 1 -i 51 -a 1 -x {0.0 2.0 34 ------- null}
r -t 1.997708 -s 4 -d 2 -p tcp -e 1040 -c 1 -i 40 -a 1 -x {0.0 2.0 23 ------- null}
h -t 1.997708 -s 2 -d 4 -p ack -e 40 -c 1 -i 52 -a 1 -x {2.0 0.0 23 ------- null}
r -t 2.002124 -s 4 -d 2 -p tcp -e 1040 -c 1 -i 41 -a 1 -x {0.0 2.0 24 ------- null}
r -t 2.00654 -s 4 -d 2 -p tcp -e 1040 -c 1 -i 42 -a 1 -x {0.0 2.0 25 ------- null}
h -t 2.00654 -s 2 -d 4 -p ack -e 40 -c 1 -i 53 -a 1 -x {2.0 0.0 25 ------- null}
+ -t 2.013296 -s 0 -d 4 -p tcp -e 1040 -c 1 -i 43 -a 1 -x {0.0 2.0 26 ------- null}
- -t 2.013296 -s 0 -d 4 -p tcp -e 1040 -c 1 -i 43 -a 1 -x {0.0 2.0 26 ------- null}
h -t 2.013296 -s 0 -d 4 -p tcp -e 1040 -c 1 -i 43 -a 1 -x {0.0 2.0 -1 ------- null}
+ -t 2.013296 -s 0 -d 4 -p tcp -e 1040 -c 1 -i 44 -a 1 -x {0.0 2.0 27 ------- null}
+ -t 2.013296 -s 0 -d 4 -p tcp -e 1040 -c 1 -i 45 -a 1 -x {0.0 2.0 28 ------- null}
d -t 2.0133 -s 3 -d 4 -p tcp -e 1040 -c 1 -i 43 -a 1 -x {0.0 2.0 26 ------- null}
d -t 2.0133 -s 1 -d 4 -p tcp -e 1040 -c 1 -i 43 -a 1 -x {0.0 2.0 26 ------- null}
- -t 2.017712 -s 0 -d 4 -p tcp -e 1040 -c 1 -i 44 -a 1 -x {0.0 2.0 27 ------- null}
h -t 2.017712 -s 0 -d 4 -p tcp -e 1040 -c 1 -i 44 -a 1 -x {0.0 2.0 -1 ------- null}
d -t 2.017716 -s 3 -d 4 -p tcp -e 1040 -c 1 -i 44 -a 1 -x {0.0 2.0 27 ------- null}
d -t 2.017716 -s 1 -d 4 -p tcp -e 1040 -c 1 -i 44 -a 1 -x {0.0 2.0 27 ------- null}
+ -t 2.022128 -s 0 -d 4 -p tcp -e 1040 -c 1 -i 46 -a 1 -x {0.0 2.0 29 ------- null}
+ -t 2.022128 -s 0 -d 4 -p tcp -e 1040 -c 1 -i 47 -a 1 -x {0.0 2.0 30 ------- null}
+ -t 2.022128 -s 0 -d 4 -p tcp -e 1040 -c 1 -i 48 -a 1 -x {0.0 2.0 31 ------- null}
- -t 2.022128 -s 0 -d 4 -p tcp -e 1040 -c 1 -i 45 -a 1 -x {0.0 2.0 28 ------- null}
h -t 2.022128 -s 0 -d 4 -p tcp -e 1040 -c 1 -i 45 -a 1 -x {0.0 2.0 -1 ------- null}
d -t 2.022132 -s 3 -d 4 -p tcp -e 1040 -c 1 -i 45 -a 1 -x {0.0 2.0 28 ------- null}
d -t 2.022132 -s 1 -d 4 -p tcp -e 1040 -c 1 -i 45 -a 1 -x {0.0 2.0 28 ------- null}
- -t 2.026544 -s 0 -d 4 -p tcp -e 1040 -c 1 -i 46 -a 1 -x {0.0 2.0 29 ------- null}
h -t 2.026544 -s 0 -d 4 -p tcp -e 1040 -c 1 -i 46 -a 1 -x {0.0 2.0 -1 ------- null}
d -t 2.026548 -s 3 -d 4 -p tcp -e 1040 -c 1 -i 46 -a 1 -x {0.0 2.0 29 ------- null}
d -t 2.026548 -s 1 -d 4 -p tcp -e 1040 -c 1 -i 46 -a 1 -x {0.0 2.0 29 ------- null}
+ -t 2.03096 -s 0 -d 4 -p tcp -e 1040 -c 1 -i 49 -a 1 -x {0.0 2.0 32 ------- null}
+ -t 2.03096 -s 0 -d 4 -p tcp -e 1040 -c 1 -i 50 -a 1 -x {0.0 2.0 33 ------- null}
+ -t 2.03096 -s 0 -d 4 -p tcp -e 1040 -c 1 -i 51 -a 1 -x {0.0 2.0 34 ------- null}
- -t 2.03096 -s 0 -d 4 -p tcp -e 1040 -c 1 -i 47 -a 1 -x {0.0 2.0 30 ------- null}
h -t 2.03096 -s 0 -d 4 -p tcp -e 1040 -c 1 -i 47 -a 1 -x {0.0 2.0 -1 ------- null}
d -t 2.030964 -s 3 -d 4 -p tcp -e 1040 -c 1 -i 47 -a 1 -x {0.0 2.0 30 ------- null}
d -t 2.030964 -s 1 -d 4 -p tcp -e 1040 -c 1 -i 47 -a 1 -x {0.0 2.0 30 ------- null}
- -t 2.035376 -s 0 -d 4 -p tcp -e 1040 -c 1 -i 48 -a 1 -x {0.0 2.0 31 ------- null}
h -t 2.035376 -s 0 -d 4 -p tcp -e 1040 -c 1 -i 48 -a 1 -x {0.0 2.0 -1 ------- null}
d -t 2.03538 -s 3 -d 4 -p tcp -e 1040 -c 1 -i 48 -a 1 -x {0.0 2.0 31 ------- null}
d -t 2.03538 -s 1 -d 4 -p tcp -e 1040 -c 1 -i 48 -a 1 -x {0.0 2.0 31 ------- null}
+ -t 2.037708 -s 2 -d 4 -p ack -e 40 -c 1 -i 52 -a 1 -x {2.0 0.0 23 ------- null}
- -t 2.037708 -s 2 -d 4 -p ack -e 40 -c 1 -i 52 -a 1 -x {2.0 0.0 23 ------- null}
h -t 2.037708 -s 2 -d 4 -p ack -e 40 -c 1 -i 52 -a 1 -x {2.0 0.0 -1 ------- null}
d -t 2.037712 -s 3 -d 4 -p ack -e 40 -c 1 -i 52 -a 1 -x {2.0 0.0 23 ------- null}
d -t 2.037712 -s 1 -d 4 -p ack -e 40 -c 1 -i 52 -a 1 -x {2.0 0.0 23 ------- null}
- -t 2.039792 -s 0 -d 4 -p tcp -e 1040 -c 1 -i 49 -a 1 -x {0.0 2.0 32 ------- null}
h -t 2.039792 -s 0 -d 4 -p tcp -e 1040 -c 1 -i 49 -a 1 -x {0.0 2.0 -1 ------- null}
d -t 2.039796 -s 3 -d 4 -p tcp -e 1040 -c 1 -i 49 -a 1 -x {0.0 2.0 32 ------- null}
d -t 2.039796 -s 1 -d 4 -p tcp -e 1040 -c 1 -i 49 -a 1 -x {0.0 2.0 32 ------- null}
- -t 2.044208 -s 0 -d 4 -p tcp -e 1040 -c 1 -i 50 -a 1 -x {0.0 2.0 33 ------- null}
h -t 2.044208 -s 0 -d 4 -p tcp -e 1040 -c 1 -i 50 -a 1 -x {0.0 2.0 -1 ------- null}
d -t 2.044212 -s 3 -d 4 -p tcp -e 1040 -c 1 -i 50 -a 1 -x {0.0 2.0 33 ------- null}
d -t 2.044212 -s 1 -d 4 -p tcp -e 1040 -c 1 -i 50 -a 1 -x {0.0 2.0 33 ------- null}