V -t * -v 1.0a5 -a 0
A -t * -n 1 -p 0 -o 0x7fffffff -c 30 -a 1
A -t * -h 1 -m 1073741823 -s 0
c -t * -i 4 -n Green
c -t * -i 1 -n Black
c -t * -i 2 -n Red
c -t * -i 3 -n Blue
n -t * -a 4 -s 4 -S UP -v circle -c black -i black
n -t * -a 0 -s 0 -S UP -v circle -c black -i black
n -t * -a 1 -s 1 -S UP -v circle -c black -i black
n -t * -a 2 -s 2 -S UP -v circle -c black -i black
n -t * -a 3 -s 3 -S UP -v circle -c black -i black
l -t * -s 0 -d 2 -S UP -r 2000000 -D 0.01 -c black -o right-down
l -t * -s 1 -d 2 -S UP -r 2000000 -D 0.01 -c black -o right-up
l -t * -s 3 -d 2 -S UP -r 1700000 -D 0.02 -c black -o left-down
l -t * -s 4 -d 2 -S UP -r 1500000 -D 0.014999999999999999 -c black -o left-up
q -t * -s 3 -d 2 -a 0.5
q -t * -s 2 -d 3 -a 0.5
+ -t 0.1 -s 3 -d 2 -p cbr -e 1000 -c 2 -i 0 -a 2 -x {3.1 4.1 0 ------- null}
- -t 0.1 -s 3 -d 2 -p cbr -e 1000 -c 2 -i 0 -a 2 -x {3.1 4.1 0 ------- null}
h -t 0.1 -s 3 -d 2 -p cbr -e 1000 -c 2 -i 0 -a 2 -x {3.1 4.1 -1 ------- null}
+ -t 0.105333333333333 -s 3 -d 2 -p cbr -e 1000 -c 2 -i 1 -a 2 -x {3.1 4.1 1 ------- null}
- -t 0.105333333333333 -s 3 -d 2 -p cbr -e 1000 -c 2 -i 1 -a 2 -x {3.1 4.1 1 ------- null}
h -t 0.105333333333333 -s 3 -d 2 -p cbr -e 1000 -c 2 -i 1 -a 2 -x {3.1 4.1 -1 ------- null}
+ -t 0.110666666666667 -s 3 -d 2 -p cbr -e 1000 -c 2 -i 2 -a 2 -x {3.1 4.1 2 ------- null}
- -t 0.110666666666667 -s 3 -d 2 -p cbr -e 1000 -c 2 -i 2 -a 2 -x {3.1 4.1 2 ------- null}
h -t 0.110666666666667 -s 3 -d 2 -p cbr -e 1000 -c 2 -i 2 -a 2 -x {3.1 4.1 -1 ------- null}
+ -t 0.116 -s 3 -d 2 -p cbr -e 1000 -c 2 -i 3 -a 2 -x {3.1 4.1 3 ------- null}
- -t 0.116 -s 3 -d 2 -p cbr -e 1000 -c 2 -i 3 -a 2 -x {3.1 4.1 3 ------- null}
h -t 0.116 -s 3 -d 2 -p cbr -e 1000 -c 2 -i 3 -a 2 -x {3.1 4.1 -1 ------- null}
+ -t 0.121333333333333 -s 3 -d 2 -p cbr -e 1000 -c 2 -i 4 -a 2 -x {3.1 4.1 4 ------- null}
- -t 0.121333333333333 -s 3 -d 2 -p cbr -e 1000 -c 2 -i 4 -a 2 -x {3.1 4.1 4 ------- null}
h -t 0.121333333333333 -s 3 -d 2 -p cbr -e 1000 -c 2 -i 4 -a 2 -x {3.1 4.1 -1 ------- null}
r -t 0.124705882352941 -s 3 -d 2 -p cbr -e 1000 -c 2 -i 0 -a 2 -x {3.1 4.1 0 ------- null}
+ -t 0.124705882352941 -s 2 -d 4 -p cbr -e 1000 -c 2 -i 0 -a 2 -x {3.1 4.1 0 ------- null}
- -t 0.124705882352941 -s 2 -d 4 -p cbr -e 1000 -c 2 -i 0 -a 2 -x {3.1 4.1 0 ------- null}
h -t 0.124705882352941 -s 2 -d 4 -p cbr -e 1000 -c 2 -i 0 -a 2 -x {3.1 4.1 -1 ------- null}
+ -t 0.126666666666667 -s 3 -d 2 -p cbr -e 1000 -c 2 -i 5 -a 2 -x {3.1 4.1 5 ------- null}
- -t 0.126666666666667 -s 3 -d 2 -p cbr -e 1000 -c 2 -i 5 -a 2 -x {3.1 4.1 5 ------- null}
h -t 0.126666666666667 -s 3 -d 2 -p cbr -e 1000 -c 2 -i 5 -a 2 -x {3.1 4.1 -1 ------- null}
r -t 0.130039215686275 -s 3 -d 2 -p cbr -e 1000 -c 2 -i 1 -a 2 -x {3.1 4.1 1 ------- null}
+ -t 0.130039215686275 -s 2 -d 4 -p cbr -e 1000 -c 2 -i 1 -a 2 -x {3.1 4.1 1 ------- null}
- -t 0.130039215686275 -s 2 -d 4 -p cbr -e 1000 -c 2 -i 1 -a 2 -x {3.1 4.1 1 ------- null}
h -t 0.130039215686275 -s 2 -d 4 -p cbr -e 1000 -c 2 -i 1 -a 2 -x {3.1 4.1 -1 ------- null}
+ -t 0.132 -s 3 -d 2 -p cbr -e 1000 -c 2 -i 6 -a 2 -x {3.1 4.1 6 ------- null}
- -t 0.132 -s 3 -d 2 -p cbr -e 1000 -c 2 -i 6 -a 2 -x {3.1 4.1 6 ------- null}
h -t 0.132 -s 3 -d 2 -p cbr -e 1000 -c 2 -i 6 -a 2 -x {3.1 4.1 -1 ------- null}
r -t 0.135372549019608 -s 3 -d 2 -p cbr -e 1000 -c 2 -i 2 -a 2 -x {3.1 4.1 2 ------- null}
+ -t 0.135372549019608 -s 2 -d 4 -p cbr -e 1000 -c 2 -i 2 -a 2 -x {3.1 4.1 2 ------- null}
- -t 0.135372549019608 -s 2 -d 4 -p cbr -e 1000 -c 2 -i 2 -a 2 -x {3.1 4.1 2 ------- null}
h -t 0.135372549019608 -s 2 -d 4 -p cbr -e 1000 -c 2 -i 2 -a 2 -x {3.1 4.1 -1 ------- null}
+ -t 0.137333333333333 -s 3 -d 2 -p cbr -e 1000 -c 2 -i 7 -a 2 -x {3.1 4.1 7 ------- null}
- -t 0.137333333333333 -s 3 -d 2 -p cbr -e 1000 -c 2 -i 7 -a 2 -x {3.1 4.1 7 ------- null}
h -t 0.137333333333333 -s 3 -d 2 -p cbr -e 1000 -c 2 -i 7 -a 2 -x {3.1 4.1 -1 ------- null}
r -t 0.140705882352941 -s 3 -d 2 -p cbr -e 1000 -c 2 -i 3 -a 2 -x {3.1 4.1 3 ------- null}
+ -t 0.140705882352941 -s 2 -d 4 -p cbr -e 1000 -c 2 -i 3 -a 2 -x {3.1 4.1 3 ------- null}
- -t 0.140705882352941 -s 2 -d 4 -p cbr -e 1000 -c 2 -i 3 -a 2 -x {3.1 4.1 3 ------- null}
h -t 0.140705882352941 -s 2 -d 4 -p cbr -e 1000 -c 2 -i 3 -a 2 -x {3.1 4.1 -1 ------- null}
+ -t 0.142666666666667 -s 3 -d 2 -p cbr -e 1000 -c 2 -i 8 -a 2 -x {3.1 4.1 8 ------- null}
- -t 0.142666666666667 -s 3 -d 2 -p cbr -e 1000 -c 2 -i 8 -a 2 -x {3.1 4.1 8 ------- null}
h -t 0.142666666666667 -s 3 -d 2 -p cbr -e 1000 -c 2 -i 8 -a 2 -x {3.1 4.1 -1 ------- null}
r -t 0.145039215686275 -s 2 -d 4 -p cbr -e 1000 -c 2 -i 0 -a 2 -x {3.1 4.1 0 ------- null}
r -t 0.146039215686274 -s 3 -d 2 -p cbr -e 1000 -c 2 -i 4 -a 2 -x {3.1 4.1 4 ------- null}
+ -t 0.146039215686274 -s 2 -d 4 -p cbr -e 1000 -c 2 -i 4 -a 2 -x {3.1 4.1 4 ------- null}
- -t 0.146039215686275 -s 2 -d 4 -p cbr -e 1000 -c 2 -i 4 -a 2 -x {3.1 4.1 4 ------- null}
h -t 0.146039215686275 -s 2 -d 4 -p cbr -e 1000 -c 2 -i 4 -a 2 -x {3.1 4.1 -1 ------- null}
+ -t 0.148 -s 3 -d 2 -p cbr -e 1000 -c 2 -i 9 -a 2 -x {3.1 4.1 9 ------- null}
- -t 0.148 -s 3 -d 2 -p cbr -e 1000 -c 2 -i 9 -a 2 -x {3.1 4.1 9 ------- null}
h -t 0.148 -s 3 -d 2 -p cbr -e 1000 -c 2 -i 9 -a 2 -x {3.1 4.1 -1 ------- null}
r -t 0.150372549019608 -s 2 -d 4 -p cbr -e 1000 -c 2 -i 1 -a 2 -x {3.1 4.1 1 ------- null}
r -t 0.151372549019608 -s 3 -d 2 -p cbr -e 1000 -c 2 -i 5 -a 2 -x {3.1 4.1 5 ------- null}
+ -t 0.151372549019608 -s 2 -d 4 -p cbr -e 1000 -c 2 -i 5 -a 2 -x {3.1 4.1 5 ------- null}
- -t 0.151372549019608 -s 2 -d 4 -p cbr -e 1000 -c 2 -i 5 -a 2 -x {3.1 4.1 5 ------- null}
h -t 0.151372549019608 -s 2 -d 4 -p cbr -e 1000 -c 2 -i 5 -a 2 -x {3.1 4.1 -1 ------- null}
+ -t 0.153333333333333 -s 3 -d 2 -p cbr -e 1000 -c 2 -i 10 -a 2 -x {3.1 4.1 10 ------- null}
- -t 0.153333333333333 -s 3 -d 2 -p cbr -e 1000 -c 2 -i 10 -a 2 -x {3.1 4.1 10 ------- null}
h -t 0.153333333333333 -s 3 -d 2 -p cbr -e 1000 -c 2 -i 10 -a 2 -x {3.1 4.1 -1 ------- null}
r -t 0.155705882352941 -s 2 -d 4 -p cbr -e 1000 -c 2 -i 2 -a 2 -x {3.1 4.1 2 ------- null}
r -t 0.156705882352941 -s 3 -d 2 -p cbr -e 1000 -c 2 -i 6 -a 2 -x {3.1 4.1 6 ------- null}
+ -t 0.156705882352941 -s 2 -d 4 -p cbr -e 1000 -c 2 -i 6 -a 2 -x {3.1 4.1 6 ------- null}
- -t 0.156705882352941 -s 2 -d 4 -p cbr -e 1000 -c 2 -i 6 -a 2 -x {3.1 4.1 6 ------- null}
h -t 0.156705882352941 -s 2 -d 4 -p cbr -e 1000 -c 2 -i 6 -a 2 -x {3.1 4.1 -1 ------- null}
+ -t 0.158666666666667 -s 3 -d 2 -p cbr -e 1000 -c 2 -i 11 -a 2 -x {3.1 4.1 11 ------- null}
- -t 0.158666666666667 -s 3 -d 2 -p cbr -e 1000 -c 2 -i 11 -a 2 -x {3.1 4.1 11 ------- null}
h -t 0.158666666666667 -s 3 -d 2 -p cbr -e 1000 -c 2 -i 11 -a 2 -x {3.1 4.1 -1 ------- null}
r -t 0.161039215686275 -s 2 -d 4 -p cbr -e 1000 -c 2 -i 3 -a 2 -x {3.1 4.1 3 ------- null}
r -t 0.162039215686274 -s 3 -d 2 -p cbr -e 1000 -c 2 -i 7 -a 2 -x {3.1 4.1 7 ------- null}
+ -t 0.162039215686274 -s 2 -d 4 -p cbr -e 1000 -c 2 -i 7 -a 2 -x {3.1 4.1 7 ------- null}
- -t 0.162039215686274 -s 2 -d 4 -p cbr -e 1000 -c 2 -i 7 -a 2 -x {3.1 4.1 7 ------- null}
h -t 0.162039215686274 -s 2 -d 4 -p cbr -e 1000 -c 2 -i 7 -a 2 -x {3.1 4.1 -1 ------- null}
+ -t 0.164 -s 3 -d 2 -p cbr -e 1000 -c 2 -i 12 -a 2 -x {3.1 4.1 12 ------- null}
- -t 0.164 -s 3 -d 2 -p cbr -e 1000 -c 2 -i 12 -a 2 -x {3.1 4.1 12 ------- null}
h -t 0.164 -s 3 -d 2 -p cbr -e 1000 -c 2 -i 12 -a 2 -x {3.1 4.1 -1 ------- null}
r -t 0.166372549019608 -s 2 -d 4 -p cbr -e 1000 -c 2 -i 4 -a 2 -x {3.1 4.1 4 ------- null}
r -t 0.167372549019608 -s 3 -d 2 -p cbr -e 1000 -c 2 -i 8 -a 2 -x {3.1 4.1 8 ------- null}
+ -t 0.167372549019608 -s 2 -d 4 -p cbr -e 1000 -c 2 -i 8 -a 2 -x {3.1 4.1 8 ------- null}
- -t 0.167372549019608 -s 2 -d 4 -p cbr -e 1000 -c 2 -i 8 -a 2 -x {3.1 4.1 8 ------- null}
h -t 0.167372549019608 -s 2 -d 4 -p cbr -e 1000 -c 2 -i 8 -a 2 -x {3.1 4.1 -1 ------- null}
+ -t 0.169333333333333 -s 3 -d 2 -p cbr -e 1000 -c 2 -i 13 -a 2 -x {3.1 4.1 13 ------- null}
- -t 0.169333333333333 -s 3 -d 2 -p cbr -e 1000 -c 2 -i 13 -a 2 -x {3.1 4.1 13 ------- null}
h -t 0.169333333333333 -s 3 -d 2 -p cbr -e 1000 -c 2 -i 13 -a 2 -x {3.1 4.1 -1 ------- null}
r -t 0.171705882352941 -s 2 -d 4 -p cbr -e 1000 -c 2 -i 5 -a 2 -x {3.1 4.1 5 ------- null}
r -t 0.172705882352941 -s 3 -d 2 -p cbr -e 1000 -c 2 -i 9 -a 2 -x {3.1 4.1 9 ------- null}
+ -t 0.172705882352941 -s 2 -d 4 -p cbr -e 1000 -c 2 -i 9 -a 2 -x {3.1 4.1 9 ------- null}
- -t 0.172705882352941 -s 2 -d 4 -p cbr -e 1000 -c 2 -i 9 -a 2 -x {3.1 4.1 9 ------- null}
h -t 0.172705882352941 -s 2 -d 4 -p cbr -e 1000 -c 2 -i 9 -a 2 -x {3.1 4.1 -1 ------- null}
+ -t 0.174666666666667 -s 3 -d 2 -p cbr -e 1000 -c 2 -i 14 -a 2 -x {3.1 4.1 14 ------- null}
- -t 0.174666666666667 -s 3 -d 2 -p cbr -e 1000 -c 2 -i 14 -a 2 -x {3.1 4.1 14 ------- null}
h -t 0.174666666666667 -s 3 -d 2 -p cbr -e 1000 -c 2 -i 14 -a 2 -x {3.1 4.1 -1 ------- null}
r -t 0.177039215686275 -s 2 -d 4 -p cbr -e 1000 -c 2 -i 6 -a 2 -x {3.1 4.1 6 ------- null}
r -t 0.178039215686274 -s 3 -d 2 -p cbr -e 1000 -c 2 -i 10 -a 2 -x {3.1 4.1 10 ------- null}
+ -t 0.178039215686274 -s 2 -d 4 -p cbr -e 1000 -c 2 -i 10 -a 2 -x {3.1 4.1 10 ------- null}
- -t 0.178039215686274 -s 2 -d 4 -p cbr -e 1000 -c 2 -i 10 -a 2 -x {3.1 4.1 10 ------- null}
h -t 0.178039215686274 -s 2 -d 4 -p cbr -e 1000 -c 2 -i 10 -a 2 -x {3.1 4.1 -1 ------- null}
+ -t 0.18 -s 3 -d 2 -p cbr -e 1000 -c 2 -i 15 -a 2 -x {3.1 4.1 15 ------- null}
- -t 0.18 -s 3 -d 2 -p cbr -e 1000 -c 2 -i 15 -a 2 -x {3.1 4.1 15 ------- null}
h -t 0.18 -s 3 -d 2 -p cbr -e 1000 -c 2 -i 15 -a 2 -x {3.1 4.1 -1 ------- null}
r -t 0.182372549019608 -s 2 -d 4 -p cbr -e 1000 -c 2 -i 7 -a 2 -x {3.1 4.1 7 ------- null}
r -t 0.183372549019608 -s 3 -d 2 -p cbr -e 1000 -c 2 -i 11 -a 2 -x {3.1 4.1 11 ------- null}
+ -t 0.183372549019608 -s 2 -d 4 -p cbr -e 1000 -c 2 -i 11 -a 2 -x {3.1 4.1 11 ------- null}
- -t 0.183372549019608 -s 2 -d 4 -p cbr -e 1000 -c 2 -i 11 -a 2 -x {3.1 4.1 11 ------- null}
h -t 0.183372549019608 -s 2 -d 4 -p cbr -e 1000 -c 2 -i 11 -a 2 -x {3.1 4.1 -1 ------- null}
+ -t 0.185333333333333 -s 3 -d 2 -p cbr -e 1000 -c 2 -i 16 -a 2 -x {3.1 4.1 16 ------- null}
- -t 0.185333333333333 -s 3 -d 2 -p cbr -e 1000 -c 2 -i 16 -a 2 -x {3.1 4.1 16 ------- null}
h -t 0.185333333333333 -s 3 -d 2 -p cbr -e 1000 -c 2 -i 16 -a 2 -x {3.1 4.1 -1 ------- null}
r -t 0.187705882352941 -s 2 -d 4 -p cbr -e 1000 -c 2 -i 8 -a 2 -x {3.1 4.1 8 ------- null}
r -t 0.188705882352941 -s 3 -d 2 -p cbr -e 1000 -c 2 -i 12 -a 2 -x {3.1 4.1 12 ------- null}
+ -t 0.188705882352941 -s 2 -d 4 -p cbr -e 1000 -c 2 -i 12 -a 2 -x {3.1 4.1 12 ------- null}
- -t 0.188705882352941 -s 2 -d 4 -p cbr -e 1000 -c 2 -i 12 -a 2 -x {3.1 4.1 12 ------- null}
h -t 0.188705882352941 -s 2 -d 4 -p cbr -e 1000 -c 2 -i 12 -a 2 -x {3.1 4.1 -1 ------- null}
+ -t 0.190666666666667 -s 3 -d 2 -p cbr -e 1000 -c 2 -i 17 -a 2 -x {3.1 4.1 17 ------- null}
- -t 0.190666666666667 -s 3 -d 2 -p cbr -e 1000 -c 2 -i 17 -a 2 -x {3.1 4.1 17 ------- null}
h -t 0.190666666666667 -s 3 -d 2 -p cbr -e 1000 -c 2 -i 17 -a 2 -x {3.1 4.1 -1 ------- null}
r -t 0.193039215686274 -s 2 -d 4 -p cbr -e 1000 -c 2 -i 9 -a 2 -x {3.1 4.1 9 ------- null}
r -t 0.194039215686274 -s 3 -d 2 -p cbr -e 1000 -c 2 -i 13 -a 2 -x {3.1 4.1 13 ------- null}
+ -t 0.194039215686274 -s 2 -d 4 -p cbr -e 1000 -c 2 -i 13 -a 2 -x {3.1 4.1 13 ------- null}
- -t 0.194039215686274 -s 2 -d 4 -p cbr -e 1000 -c 2 -i 13 -a 2 -x {3.1 4.1 13 ------- null}
h -t 0.194039215686274 -s 2 -d 4 -p cbr -e 1000 -c 2 -i 13 -a 2 -x {3.1 4.1 -1 ------- null}
+ -t 0.196 -s 3 -d 2 -p cbr -e 1000 -c 2 -i 18 -a 2 -x {3.1 4.1 18 ------- null}
- -t 0.196 -s 3 -d 2 -p cbr -e 1000 -c 2 -i 18 -a 2 -x {3.1 4.1 18 ------- null}
h -t 0.196 -s 3 -d 2 -p cbr -e 1000 -c 2 -i 18 -a 2 -x {3.1 4.1 -1 ------- null}
r -t 0.198372549019608 -s 2 -d 4 -p cbr -e 1000 -c 2 -i 10 -a 2 -x {3.1 4.1 10 ------- null}
r -t 0.199372549019608 -s 3 -d 2 -p cbr -e 1000 -c 2 -i 14 -a 2 -x {3.1 4.1 14 ------- null}
+ -t 0.199372549019608 -s 2 -d 4 -p cbr -e 1000 -c 2 -i 14 -a 2 -x {3.1 4.1 14 ------- null}
- -t 0.199372549019608 -s 2 -d 4 -p cbr -e 1000 -c 2 -i 14 -a 2 -x {3.1 4.1 14 ------- null}
h -t 0.199372549019608 -s 2 -d 4 -p cbr -e 1000 -c 2 -i 14 -a 2 -x {3.1 4.1 -1 ------- null}
+ -t 0.2 -s 4 -d 2 -p cbr -e 500 -c 4 -i 19 -a 4 -x {4.2 1.1 0 ------- null}
- -t 0.2 -s 4 -d 2 -p cbr -e 500 -c 4 -i 19 -a 4 -x {4.2 1.1 0 ------- null}
h -t 0.2 -s 4 -d 2 -p cbr -e 500 -c 4 -i 19 -a 4 -x {4.2 1.1 -1 ------- null}
+ -t 0.201333333333333 -s 3 -d 2 -p cbr -e 1000 -c 2 -i 20 -a 2 -x {3.1 4.1 19 ------- null}
- -t 0.201333333333333 -s 3 -d 2 -p cbr -e 1000 -c 2 -i 20 -a 2 -x {3.1 4.1 19 ------- null}
h -t 0.201333333333333 -s 3 -d 2 -p cbr -e 1000 -c 2 -i 20 -a 2 -x {3.1 4.1 -1 ------- null}
r -t 0.203705882352941 -s 2 -d 4 -p cbr -e 1000 -c 2 -i 11 -a 2 -x {3.1 4.1 11 ------- null}
+ -t 0.204 -s 4 -d 2 -p cbr -e 500 -c 4 -i 21 -a 4 -x {4.2 1.1 1 ------- null}
- -t 0.204 -s 4 -d 2 -p cbr -e 500 -c 4 -i 21 -a 4 -x {4.2 1.1 1 ------- null}
h -t 0.204 -s 4 -d 2 -p cbr -e 500 -c 4 -i 21 -a 4 -x {4.2 1.1 -1 ------- null}
r -t 0.204705882352941 -s 3 -d 2 -p cbr -e 1000 -c 2 -i 15 -a 2 -x {3.1 4.1 15 ------- null}
+ -t 0.204705882352941 -s 2 -d 4 -p cbr -e 1000 -c 2 -i 15 -a 2 -x {3.1 4.1 15 ------- null}
- -t 0.204705882352941 -s 2 -d 4 -p cbr -e 1000 -c 2 -i 15 -a 2 -x {3.1 4.1 15 ------- null}
h -t 0.204705882352941 -s 2 -d 4 -p cbr -e 1000 -c 2 -i 15 -a 2 -x {3.1 4.1 -1 ------- null}
+ -t 0.206666666666667 -s 3 -d 2 -p cbr -e 1000 -c 2 -i 22 -a 2 -x {3.1 4.1 20 ------- null}
- -t 0.206666666666667 -s 3 -d 2 -p cbr -e 1000 -c 2 -i 22 -a 2 -x {3.1 4.1 20 ------- null}
h -t 0.206666666666667 -s 3 -d 2 -p cbr -e 1000 -c 2 -i 22 -a 2 -x {3.1 4.1 -1 ------- null}
+ -t 0.208 -s 4 -d 2 -p cbr -e 500 -c 4 -i 23 -a 4 -x {4.2 1.1 2 ------- null}
- -t 0.208 -s 4 -d 2 -p cbr -e 500 -c 4 -i 23 -a 4 -x {4.2 1.1 2 ------- null}
h -t 0.208 -s 4 -d 2 -p cbr -e 500 -c 4 -i 23 -a 4 -x {4.2 1.1 -1 ------- null}
r -t 0.209039215686274 -s 2 -d 4 -p cbr -e 1000 -c 2 -i 12 -a 2 -x {3.1 4.1 12 ------- null}
r -t 0.210039215686274 -s 3 -d 2 -p cbr -e 1000 -c 2 -i 16 -a 2 -x {3.1 4.1 16 ------- null}
+ -t 0.210039215686274 -s 2 -d 4 -p cbr -e 1000 -c 2 -i 16 -a 2 -x {3.1 4.1 16 ------- null}
- -t 0.210039215686274 -s 2 -d 4 -p cbr -e 1000 -c 2 -i 16 -a 2 -x {3.1 4.1 16 ------- null}
h -t 0.210039215686274 -s 2 -d 4 -p cbr -e 1000 -c 2 -i 16 -a 2 -x {3.1 4.1 -1 ------- null}
+ -t 0.212 -s 3 -d 2 -p cbr -e 1000 -c 2 -i 24 -a 2 -x {3.1 4.1 21 ------- null}
- -t 0.212 -s 3 -d 2 -p cbr -e 1000 -c 2 -i 24 -a 2 -x {3.1 4.1 21 ------- null}
h -t 0.212 -s 3 -d 2 -p cbr -e 1000 -c 2 -i 24 -a 2 -x {3.1 4.1 -1 ------- null}
+ -t 0.212 -s 4 -d 2 -p cbr -e 500 -c 4 -i 25 -a 4 -x {4.2 1.1 3 ------- null}
- -t 0.212 -s 4 -d 2 -p cbr -e 500 -c 4 -i 25 -a 4 -x {4.2 1.1 3 ------- null}
h -t 0.212 -s 4 -d 2 -p cbr -e 500 -c 4 -i 25 -a 4 -x {4.2 1.1 -1 ------- null}
r -t 0.214372549019608 -s 2 -d 4 -p cbr -e 1000 -c 2 -i 13 -a 2 -x {3.1 4.1 13 ------- null}
r -t 0.215372549019608 -s 3 -d 2 -p cbr -e 1000 -c 2 -i 17 -a 2 -x {3.1 4.1 17 ------- null}
+ -t 0.215372549019608 -s 2 -d 4 -p cbr -e 1000 -c 2 -i 17 -a 2 -x {3.1 4.1 17 ------- null}
- -t 0.215372549019608 -s 2 -d 4 -p cbr -e 1000 -c 2 -i 17 -a 2 -x {3.1 4.1 17 ------- null}
h -t 0.215372549019608 -s 2 -d 4 -p cbr -e 1000 -c 2 -i 17 -a 2 -x {3.1 4.1 -1 ------- null}
+ -t 0.216 -s 4 -d 2 -p cbr -e 500 -c 4 -i 26 -a 4 -x {4.2 1.1 4 ------- null}
- -t 0.216 -s 4 -d 2 -p cbr -e 500 -c 4 -i 26 -a 4 -x {4.2 1.1 4 ------- null}
h -t 0.216 -s 4 -d 2 -p cbr -e 500 -c 4 -i 26 -a 4 -x {4.2 1.1 -1 ------- null}
+ -t 0.217333333333333 -s 3 -d 2 -p cbr -e 1000 -c 2 -i 27 -a 2 -x {3.1 4.1 22 ------- null}
- -t 0.217333333333333 -s 3 -d 2 -p cbr -e 1000 -c 2 -i 27 -a 2 -x {3.1 4.1 22 ------- null}
h -t 0.217333333333333 -s 3 -d 2 -p cbr -e 1000 -c 2 -i 27 -a 2 -x {3.1 4.1 -1 ------- null}
r -t 0.217666666666667 -s 4 -d 2 -p cbr -e 500 -c 4 -i 19 -a 4 -x {4.2 1.1 0 ------- null}
+ -t 0.217666666666667 -s 2 -d 1 -p cbr -e 500 -c 4 -i 19 -a 4 -x {4.2 1.1 0 ------- null}
- -t 0.217666666666667 -s 2 -d 1 -p cbr -e 500 -c 4 -i 19 -a 4 -x {4.2 1.1 0 ------- null}
h -t 0.217666666666667 -s 2 -d 1 -p cbr -e 500 -c 4 -i 19 -a 4 -x {4.2 1.1 -1 ------- null}
r -t 0.219705882352941 -s 2 -d 4 -p cbr -e 1000 -c 2 -i 14 -a 2 -x {3.1 4.1 14 ------- null}
+ -t 0.22 -s 4 -d 2 -p cbr -e 500 -c 4 -i 28 -a 4 -x {4.2 1.1 5 ------- null}
- -t 0.22 -s 4 -d 2 -p cbr -e 500 -c 4 -i 28 -a 4 -x {4.2 1.1 5 ------- null}
h -t 0.22 -s 4 -d 2 -p cbr -e 500 -c 4 -i 28 -a 4 -x {4.2 1.1 -1 ------- null}
r -t 0.220705882352941 -s 3 -d 2 -p cbr -e 1000 -c 2 -i 18 -a 2 -x {3.1 4.1 18 ------- null}
+ -t 0.220705882352941 -s 2 -d 4 -p cbr -e 1000 -c 2 -i 18 -a 2 -x {3.1 4.1 18 ------- null}
- -t 0.220705882352941 -s 2 -d 4 -p cbr -e 1000 -c 2 -i 18 -a 2 -x {3.1 4.1 18 ------- null}
h -t 0.220705882352941 -s 2 -d 4 -p cbr -e 1000 -c 2 -i 18 -a 2 -x {3.1 4.1 -1 ------- null}
r -t 0.221666666666667 -s 4 -d 2 -p cbr -e 500 -c 4 -i 21 -a 4 -x {4.2 1.1 1 ------- null}
+ -t 0.221666666666667 -s 2 -d 1 -p cbr -e 500 -c 4 -i 21 -a 4 -x {4.2 1.1 1 ------- null}
- -t 0.221666666666667 -s 2 -d 1 -p cbr -e 500 -c 4 -i 21 -a 4 -x {4.2 1.1 1 ------- null}
h -t 0.221666666666667 -s 2 -d 1 -p cbr -e 500 -c 4 -i 21 -a 4 -x {4.2 1.1 -1 ------- null}
+ -t 0.222666666666667 -s 3 -d 2 -p cbr -e 1000 -c 2 -i 29 -a 2 -x {3.1 4.1 23 ------- null}
- -t 0.222666666666667 -s 3 -d 2 -p cbr -e 1000 -c 2 -i 29 -a 2 -x {3.1 4.1 23 ------- null}
h -t 0.222666666666667 -s 3 -d 2 -p cbr -e 1000 -c 2 -i 29 -a 2 -x {3.1 4.1 -1 ------- null}
+ -t 0.224 -s 4 -d 2 -p cbr -e 500 -c 4 -i 30 -a 4 -x {4.2 1.1 6 ------- null}
- -t 0.224 -s 4 -d 2 -p cbr -e 500 -c 4 -i 30 -a 4 -x {4.2 1.1 6 ------- null}
h -t 0.224 -s 4 -d 2 -p cbr -e 500 -c 4 -i 30 -a 4 -x {4.2 1.1 -1 ------- null}
r -t 0.225039215686274 -s 2 -d 4 -p cbr -e 1000 -c 2 -i 15 -a 2 -x {3.1 4.1 15 ------- null}
r -t 0.225666666666667 -s 4 -d 2 -p cbr -e 500 -c 4 -i 23 -a 4 -x {4.2 1.1 2 ------- null}
+ -t 0.225666666666667 -s 2 -d 1 -p cbr -e 500 -c 4 -i 23 -a 4 -x {4.2 1.1 2 ------- null}
- -t 0.225666666666667 -s 2 -d 1 -p cbr -e 500 -c 4 -i 23 -a 4 -x {4.2 1.1 2 ------- null}
h -t 0.225666666666667 -s 2 -d 1 -p cbr -e 500 -c 4 -i 23 -a 4 -x {4.2 1.1 -1 ------- null}
r -t 0.226039215686274 -s 3 -d 2 -p cbr -e 1000 -c 2 -i 20 -a 2 -x {3.1 4.1 19 ------- null}
+ -t 0.226039215686274 -s 2 -d 4 -p cbr -e 1000 -c 2 -i 20 -a 2 -x {3.1 4.1 19 ------- null}
- -t 0.226039215686274 -s 2 -d 4 -p cbr -e 1000 -c 2 -i 20 -a 2 -x {3.1 4.1 19 ------- null}
h -t 0.226039215686274 -s 2 -d 4 -p cbr -e 1000 -c 2 -i 20 -a 2 -x {3.1 4.1 -1 ------- null}
+ -t 0.228 -s 3 -d 2 -p cbr -e 1000 -c 2 -i 31 -a 2 -x {3.1 4.1 24 ------- null}
- -t 0.228 -s 3 -d 2 -p cbr -e 1000 -c 2 -i 31 -a 2 -x {3.1 4.1 24 ------- null}
h -t 0.228 -s 3 -d 2 -p cbr -e 1000 -c 2 -i 31 -a 2 -x {3.1 4.1 -1 ------- null}
+ -t 0.228 -s 4 -d 2 -p cbr -e 500 -c 4 -i 32 -a 4 -x {4.2 1.1 7 ------- null}
- -t 0.228 -s 4 -d 2 -p cbr -e 500 -c 4 -i 32 -a 4 -x {4.2 1.1 7 ------- null}
h -t 0.228 -s 4 -d 2 -p cbr -e 500 -c 4 -i 32 -a 4 -x {4.2 1.1 -1 ------- null}
r -t 0.229666666666667 -s 4 -d 2 -p cbr -e 500 -c 4 -i 25 -a 4 -x {4.2 1.1 3 ------- null}
+ -t 0.229666666666667 -s 2 -d 1 -p cbr -e 500 -c 4 -i 25 -a 4 -x {4.2 1.1 3 ------- null}
- -t 0.229666666666667 -s 2 -d 1 -p cbr -e 500 -c 4 -i 25 -a 4 -x {4.2 1.1 3 ------- null}
h -t 0.229666666666667 -s 2 -d 1 -p cbr -e 500 -c 4 -i 25 -a 4 -x {4.2 1.1 -1 ------- null}
r -t 0.229666666666667 -s 2 -d 1 -p cbr -e 500 -c 4 -i 19 -a 4 -x {4.2 1.1 0 ------- null}
r -t 0.230372549019608 -s 2 -d 4 -p cbr -e 1000 -c 2 -i 16 -a 2 -x {3.1 4.1 16 ------- null}
r -t 0.231372549019608 -s 3 -d 2 -p cbr -e 1000 -c 2 -i 22 -a 2 -x {3.1 4.1 20 ------- null}
+ -t 0.231372549019608 -s 2 -d 4 -p cbr -e 1000 -c 2 -i 22 -a 2 -x {3.1 4.1 20 ------- null}
- -t 0.231372549019608 -s 2 -d 4 -p cbr -e 1000 -c 2 -i 22 -a 2 -x {3.1 4.1 20 ------- null}
h -t 0.231372549019608 -s 2 -d 4 -p cbr -e 1000 -c 2 -i 22 -a 2 -x {3.1 4.1 -1 ------- null}
+ -t 0.232 -s 4 -d 2 -p cbr -e 500 -c 4 -i 33 -a 4 -x {4.2 1.1 8 ------- null}
- -t 0.232 -s 4 -d 2 -p cbr -e 500 -c 4 -i 33 -a 4 -x {4.2 1.1 8 ------- null}
h -t 0.232 -s 4 -d 2 -p cbr -e 500 -c 4 -i 33 -a 4 -x {4.2 1.1 -1 ------- null}
+ -t 0.233333333333333 -s 3 -d 2 -p cbr -e 1000 -c 2 -i 34 -a 2 -x {3.1 4.1 25 ------- null}
- -t 0.233333333333333 -s 3 -d 2 -p cbr -e 1000 -c 2 -i 34 -a 2 -x {3.1 4.1 25 ------- null}
h -t 0.233333333333333 -s 3 -d 2 -p cbr -e 1000 -c 2 -i 34 -a 2 -x {3.1 4.1 -1 ------- null}
r -t 0.233666666666667 -s 4 -d 2 -p cbr -e 500 -c 4 -i 26 -a 4 -x {4.2 1.1 4 ------- null}
+ -t 0.233666666666667 -s 2 -d 1 -p cbr -e 500 -c 4 -i 26 -a 4 -x {4.2 1.1 4 ------- null}
- -t 0.233666666666667 -s 2 -d 1 -p cbr -e 500 -c 4 -i 26 -a 4 -x {4.2 1.1 4 ------- null}
h -t 0.233666666666667 -s 2 -d 1 -p cbr -e 500 -c 4 -i 26 -a 4 -x {4.2 1.1 -1 ------- null}
r -t 0.233666666666667 -s 2 -d 1 -p cbr -e 500 -c 4 -i 21 -a 4 -x {4.2 1.1 1 ------- null}
r -t 0.235705882352941 -s 2 -d 4 -p cbr -e 1000 -c 2 -i 17 -a 2 -x {3.1 4.1 17 ------- null}
+ -t 0.236 -s 4 -d 2 -p cbr -e 500 -c 4 -i 35 -a 4 -x {4.2 1.1 9 ------- null}
- -t 0.236 -s 4 -d 2 -p cbr -e 500 -c 4 -i 35 -a 4 -x {4.2 1.1 9 ------- null}
h -t 0.236 -s 4 -d 2 -p cbr -e 500 -c 4 -i 35 -a 4 -x {4.2 1.1 -1 ------- null}
r -t 0.236705882352941 -s 3 -d 2 -p cbr -e 1000 -c 2 -i 24 -a 2 -x {3.1 4.1 21 ------- null}
+ -t 0.236705882352941 -s 2 -d 4 -p cbr -e 1000 -c 2 -i 24 -a 2 -x {3.1 4.1 21 ------- null}
- -t 0.236705882352941 -s 2 -d 4 -p cbr -e 1000 -c 2 -i 24 -a 2 -x {3.1 4.1 21 ------- null}
h -t 0.236705882352941 -s 2 -d 4 -p cbr -e 1000 -c 2 -i 24 -a 2 -x {3.1 4.1 -1 ------- null}
r -t 0.237666666666667 -s 4 -d 2 -p cbr -e 500 -c 4 -i 28 -a 4 -x {4.2 1.1 5 ------- null}
+ -t 0.237666666666667 -s 2 -d 1 -p cbr -e 500 -c 4 -i 28 -a 4 -x {4.2 1.1 5 ------- null}
- -t 0.237666666666667 -s 2 -d 1 -p cbr -e 500 -c 4 -i 28 -a 4 -x {4.2 1.1 5 ------- null}
h -t 0.237666666666667 -s 2 -d 1 -p cbr -e 500 -c 4 -i 28 -a 4 -x {4.2 1.1 -1 ------- null}
r -t 0.237666666666667 -s 2 -d 1 -p cbr -e 500 -c 4 -i 23 -a 4 -x {4.2 1.1 2 ------- null}
+ -t 0.238666666666667 -s 3 -d 2 -p cbr -e 1000 -c 2 -i 36 -a 2 -x {3.1 4.1 26 ------- null}
- -t 0.238666666666667 -s 3 -d 2 -p cbr -e 1000 -c 2 -i 36 -a 2 -x {3.1 4.1 26 ------- null}
h -t 0.238666666666667 -s 3 -d 2 -p cbr -e 1000 -c 2 -i 36 -a 2 -x {3.1 4.1 -1 ------- null}
+ -t 0.24 -s 4 -d 2 -p cbr -e 500 -c 4 -i 37 -a 4 -x {4.2 1.1 10 ------- null}
- -t 0.24 -s 4 -d 2 -p cbr -e 500 -c 4 -i 37 -a 4 -x {4.2 1.1 10 ------- null}
h -t 0.24 -s 4 -d 2 -p cbr -e 500 -c 4 -i 37 -a 4 -x {4.2 1.1 -1 ------- null}
r -t 0.241039215686274 -s 2 -d 4 -p cbr -e 1000 -c 2 -i 18 -a 2 -x {3.1 4.1 18 ------- null}
r -t 0.241666666666667 -s 4 -d 2 -p cbr -e 500 -c 4 -i 30 -a 4 -x {4.2 1.1 6 ------- null}
+ -t 0.241666666666667 -s 2 -d 1 -p cbr -e 500 -c 4 -i 30 -a 4 -x {4.2 1.1 6 ------- null}
- -t 0.241666666666667 -s 2 -d 1 -p cbr -e 500 -c 4 -i 30 -a 4 -x {4.2 1.1 6 ------- null}
h -t 0.241666666666667 -s 2 -d 1 -p cbr -e 500 -c 4 -i 30 -a 4 -x {4.2 1.1 -1 ------- null}
r -t 0.241666666666667 -s 2 -d 1 -p cbr -e 500 -c 4 -i 25 -a 4 -x {4.2 1.1 3 ------- null}
r -t 0.242039215686274 -s 3 -d 2 -p cbr -e 1000 -c 2 -i 27 -a 2 -x {3.1 4.1 22 ------- null}
+ -t 0.242039215686274 -s 2 -d 4 -p cbr -e 1000 -c 2 -i 27 -a 2 -x {3.1 4.1 22 ------- null}
- -t 0.242039215686274 -s 2 -d 4 -p cbr -e 1000 -c 2 -i 27 -a 2 -x {3.1 4.1 22 ------- null}
h -t 0.242039215686274 -s 2 -d 4 -p cbr -e 1000 -c 2 -i 27 -a 2 -x {3.1 4.1 -1 ------- null}
+ -t 0.244 -s 3 -d 2 -p cbr -e 1000 -c 2 -i 38 -a 2 -x {3.1 4.1 27 ------- null}
- -t 0.244 -s 3 -d 2 -p cbr -e 1000 -c 2 -i 38 -a 2 -x {3.1 4.1 27 ------- null}
h -t 0.244 -s 3 -d 2 -p cbr -e 1000 -c 2 -i 38 -a 2 -x {3.1 4.1 -1 ------- null}
+ -t 0.244 -s 4 -d 2 -p cbr -e 500 -c 4 -i 39 -a 4 -x {4.2 1.1 11 ------- null}
- -t 0.244 -s 4 -d 2 -p cbr -e 500 -c 4 -i 39 -a 4 -x {4.2 1.1 11 ------- null}
h -t 0.244 -s 4 -d 2 -p cbr -e 500 -c 4 -i 39 -a 4 -x {4.2 1.1 -1 ------- null}
r -t 0.245666666666667 -s 4 -d 2 -p cbr -e 500 -c 4 -i 32 -a 4 -x {4.2 1.1 7 ------- null}
+ -t 0.245666666666667 -s 2 -d 1 -p cbr -e 500 -c 4 -i 32 -a 4 -x {4.2 1.1 7 ------- null}
- -t 0.245666666666667 -s 2 -d 1 -p cbr -e 500 -c 4 -i 32 -a 4 -x {4.2 1.1 7 ------- null}
h -t 0.245666666666667 -s 2 -d 1 -p cbr -e 500 -c 4 -i 32 -a 4 -x {4.2 1.1 -1 ------- null}
r -t 0.245666666666667 -s 2 -d 1 -p cbr -e 500 -c 4 -i 26 -a 4 -x {4.2 1.1 4 ------- null}
r -t 0.246372549019608 -s 2 -d 4 -p cbr -e 1000 -c 2 -i 20 -a 2 -x {3.1 4.1 19 ------- null}
r -t 0.247372549019608 -s 3 -d 2 -p cbr -e 1000 -c 2 -i 29 -a 2 -x {3.1 4.1 23 ------- null}
+ -t 0.247372549019608 -s 2 -d 4 -p cbr -e 1000 -c 2 -i 29 -a 2 -x {3.1 4.1 23 ------- null}
- -t 0.247372549019608 -s 2 -d 4 -p cbr -e 1000 -c 2 -i 29 -a 2 -x {3.1 4.1 23 ------- null}
h -t 0.247372549019608 -s 2 -d 4 -p cbr -e 1000 -c 2 -i 29 -a 2 -x {3.1 4.1 -1 ------- null}
+ -t 0.248 -s 4 -d 2 -p cbr -e 500 -c 4 -i 40 -a 4 -x {4.2 1.1 12 ------- null}
- -t 0.248 -s 4 -d 2 -p cbr -e 500 -c 4 -i 40 -a 4 -x {4.2 1.1 12 ------- null}
h -t 0.248 -s 4 -d 2 -p cbr -e 500 -c 4 -i 40 -a 4 -x {4.2 1.1 -1 ------- null}
+ -t 0.249333333333333 -s 3 -d 2 -p cbr -e 1000 -c 2 -i 41 -a 2 -x {3.1 4.1 28 ------- null}
- -t 0.249333333333333 -s 3 -d 2 -p cbr -e 1000 -c 2 -i 41 -a 2 -x {3.1 4.1 28 ------- null}
h -t 0.249333333333333 -s 3 -d 2 -p cbr -e 1000 -c 2 -i 41 -a 2 -x {3.1 4.1 -1 ------- null}
r -t 0.249666666666667 -s 4 -d 2 -p cbr -e 500 -c 4 -i 33 -a 4 -x {4.2 1.1 8 ------- null}
+ -t 0.249666666666667 -s 2 -d 1 -p cbr -e 500 -c 4 -i 33 -a 4 -x {4.2 1.1 8 ------- null}
- -t 0.249666666666667 -s 2 -d 1 -p cbr -e 500 -c 4 -i 33 -a 4 -x {4.2 1.1 8 ------- null}
h -t 0.249666666666667 -s 2 -d 1 -p cbr -e 500 -c 4 -i 33 -a 4 -x {4.2 1.1 -1 ------- null}
r -t 0.249666666666667 -s 2 -d 1 -p cbr -e 500 -c 4 -i 28 -a 4 -x {4.2 1.1 5 ------- null}
r -t 0.251705882352941 -s 2 -d 4 -p cbr -e 1000 -c 2 -i 22 -a 2 -x {3.1 4.1 20 ------- null}
+ -t 0.252 -s 4 -d 2 -p cbr -e 500 -c 4 -i 42 -a 4 -x {4.2 1.1 13 ------- null}
- -t 0.252 -s 4 -d 2 -p cbr -e 500 -c 4 -i 42 -a 4 -x {4.2 1.1 13 ------- null}
h -t 0.252 -s 4 -d 2 -p cbr -e 500 -c 4 -i 42 -a 4 -x {4.2 1.1 -1 ------- null}
r -t 0.252705882352941 -s 3 -d 2 -p cbr -e 1000 -c 2 -i 31 -a 2 -x {3.1 4.1 24 ------- null}
+ -t 0.252705882352941 -s 2 -d 4 -p cbr -e 1000 -c 2 -i 31 -a 2 -x {3.1 4.1 24 ------- null}
- -t 0.252705882352941 -s 2 -d 4 -p cbr -e 1000 -c 2 -i 31 -a 2 -x {3.1 4.1 24 ------- null}
h -t 0.252705882352941 -s 2 -d 4 -p cbr -e 1000 -c 2 -i 31 -a 2 -x {3.1 4.1 -1 ------- null}
r -t 0.253666666666667 -s 4 -d 2 -p cbr -e 500 -c 4 -i 35 -a 4 -x {4.2 1.1 9 ------- null}
+ -t 0.253666666666667 -s 2 -d 1 -p cbr -e 500 -c 4 -i 35 -a 4 -x {4.2 1.1 9 ------- null}
- -t 0.253666666666667 -s 2 -d 1 -p cbr -e 500 -c 4 -i 35 -a 4 -x {4.2 1.1 9 ------- null}
h -t 0.253666666666667 -s 2 -d 1 -p cbr -e 500 -c 4 -i 35 -a 4 -x {4.2 1.1 -1 ------- null}
r -t 0.253666666666667 -s 2 -d 1 -p cbr -e 500 -c 4 -i 30 -a 4 -x {4.2 1.1 6 ------- null}
+ -t 0.254666666666667 -s 3 -d 2 -p cbr -e 1000 -c 2 -i 43 -a 2 -x {3.1 4.1 29 ------- null}
- -t 0.254666666666667 -s 3 -d 2 -p cbr -e 1000 -c 2 -i 43 -a 2 -x {3.1 4.1 29 ------- null}
h -t 0.254666666666667 -s 3 -d 2 -p cbr -e 1000 -c 2 -i 43 -a 2 -x {3.1 4.1 -1 ------- null}
+ -t 0.256 -s 4 -d 2 -p cbr -e 500 -c 4 -i 44 -a 4 -x {4.2 1.1 14 ------- null}
- -t 0.256 -s 4 -d 2 -p cbr -e 500 -c 4 -i 44 -a 4 -x {4.2 1.1 14 ------- null}
h -t 0.256 -s 4 -d 2 -p cbr -e 500 -c 4 -i 44 -a 4 -x {4.2 1.1 -1 ------- null}
r -t 0.257039215686274 -s 2 -d 4 -p cbr -e 1000 -c 2 -i 24 -a 2 -x {3.1 4.1 21 ------- null}
r -t 0.257666666666667 -s 4 -d 2 -p cbr -e 500 -c 4 -i 37 -a 4 -x {4.2 1.1 10 ------- null}
+ -t 0.257666666666667 -s 2 -d 1 -p cbr -e 500 -c 4 -i 37 -a 4 -x {4.2 1.1 10 ------- null}
- -t 0.257666666666667 -s 2 -d 1 -p cbr -e 500 -c 4 -i 37 -a 4 -x {4.2 1.1 10 ------- null}
h -t 0.257666666666667 -s 2 -d 1 -p cbr -e 500 -c 4 -i 37 -a 4 -x {4.2 1.1 -1 ------- null}
r -t 0.257666666666667 -s 2 -d 1 -p cbr -e 500 -c 4 -i 32 -a 4 -x {4.2 1.1 7 ------- null}
r -t 0.258039215686274 -s 3 -d 2 -p cbr -e 1000 -c 2 -i 34 -a 2 -x {3.1 4.1 25 ------- null}
+ -t 0.258039215686274 -s 2 -d 4 -p cbr -e 1000 -c 2 -i 34 -a 2 -x {3.1 4.1 25 ------- null}
- -t 0.258039215686274 -s 2 -d 4 -p cbr -e 1000 -c 2 -i 34 -a 2 -x {3.1 4.1 25 ------- null}
h -t 0.258039215686274 -s 2 -d 4 -p cbr -e 1000 -c 2 -i 34 -a 2 -x {3.1 4.1 -1 ------- null}
+ -t 0.26 -s 3 -d 2 -p cbr -e 1000 -c 2 -i 45 -a 2 -x {3.1 4.1 30 ------- null}
- -t 0.26 -s 3 -d 2 -p cbr -e 1000 -c 2 -i 45 -a 2 -x {3.1 4.1 30 ------- null}
h -t 0.26 -s 3 -d 2 -p cbr -e 1000 -c 2 -i 45 -a 2 -x {3.1 4.1 -1 ------- null}
+ -t 0.26 -s 4 -d 2 -p cbr -e 500 -c 4 -i 46 -a 4 -x {4.2 1.1 15 ------- null}
- -t 0.26 -s 4 -d 2 -p cbr -e 500 -c 4 -i 46 -a 4 -x {4.2 1.1 15 ------- null}
h -t 0.26 -s 4 -d 2 -p cbr -e 500 -c 4 -i 46 -a 4 -x {4.2 1.1 -1 ------- null}
r -t 0.261666666666667 -s 4 -d 2 -p cbr -e 500 -c 4 -i 39 -a 4 -x {4.2 1.1 11 ------- null}
+ -t 0.261666666666667 -s 2 -d 1 -p cbr -e 500 -c 4 -i 39 -a 4 -x {4.2 1.1 11 ------- null}
- -t 0.261666666666667 -s 2 -d 1 -p cbr -e 500 -c 4 -i 39 -a 4 -x {4.2 1.1 11 ------- null}
h -t 0.261666666666667 -s 2 -d 1 -p cbr -e 500 -c 4 -i 39 -a 4 -x {4.2 1.1 -1 ------- null}
r -t 0.261666666666667 -s 2 -d 1 -p cbr -e 500 -c 4 -i 33 -a 4 -x {4.2 1.1 8 ------- null}
r -t 0.262372549019608 -s 2 -d 4 -p cbr -e 1000 -c 2 -i 27 -a 2 -x {3.1 4.1 22 ------- null}
r -t 0.263372549019608 -s 3 -d 2 -p cbr -e 1000 -c 2 -i 36 -a 2 -x {3.1 4.1 26 ------- null}
+ -t 0.263372549019608 -s 2 -d 4 -p cbr -e 1000 -c 2 -i 36 -a 2 -x {3.1 4.1 26 ------- null}
- -t 0.263372549019608 -s 2 -d 4 -p cbr -e 1000 -c 2 -i 36 -a 2 -x {3.1 4.1 26 ------- null}