V -t * -v 1.0a5 -a 0
A -t * -n 1 -p 0 -o 0x7fffffff -c 30 -a 1
A -t * -h 1 -m 1073741823 -s 0
n -t * -a 4 -s 4 -S UP -v circle -c black -i black
n -t * -a 0 -s 0 -S UP -v circle -c black -i black
n -t * -a 1 -s 1 -S UP -v circle -c black -i black
n -t * -a 2 -s 2 -S UP -v circle -c black -i black
n -t * -a 3 -s 3 -S UP -v circle -c black -i black
l -t * -s 1 -d 0 -S UP -r 1000000 -D 0.0050000000000000001 -c black
l -t * -s 2 -d 0 -S UP -r 1000000 -D 0.0050000000000000001 -c black
l -t * -s 2 -d 1 -S UP -r 1000000 -D 0.0050000000000000001 -c black
l -t * -s 3 -d 0 -S UP -r 1000000 -D 0.0050000000000000001 -c black
l -t * -s 3 -d 1 -S UP -r 1000000 -D 0.0050000000000000001 -c black
l -t * -s 3 -d 2 -S UP -r 1000000 -D 0.0050000000000000001 -c black
l -t * -s 4 -d 0 -S UP -r 1000000 -D 0.0050000000000000001 -c black
l -t * -s 4 -d 1 -S UP -r 1000000 -D 0.0050000000000000001 -c black
l -t * -s 4 -d 2 -S UP -r 1000000 -D 0.0050000000000000001 -c black
l -t * -s 4 -d 3 -S UP -r 1000000 -D 0.0050000000000000001 -c black
+ -t 0.000169788487334637 -s 0 -d 1 -p rtProtoDV -e 5 -c 0 -i 0 -a 0 -x {0.2 1.2 -1 ------- null}
- -t 0.000169788487334637 -s 0 -d 1 -p rtProtoDV -e 5 -c 0 -i 0 -a 0 -x {0.2 1.2 -1 ------- null}
h -t 0.000169788487334637 -s 0 -d 1 -p rtProtoDV -e 5 -c 0 -i 0 -a 0 -x {0.2 1.2 -1 ------- null}
+ -t 0.000169788487334637 -s 0 -d 2 -p rtProtoDV -e 5 -c 0 -i 1 -a 0 -x {0.2 2.2 -1 ------- null}
- -t 0.000169788487334637 -s 0 -d 2 -p rtProtoDV -e 5 -c 0 -i 1 -a 0 -x {0.2 2.2 -1 ------- null}
h -t 0.000169788487334637 -s 0 -d 2 -p rtProtoDV -e 5 -c 0 -i 1 -a 0 -x {0.2 2.2 -1 ------- null}
+ -t 0.000169788487334637 -s 0 -d 3 -p rtProtoDV -e 5 -c 0 -i 2 -a 0 -x {0.2 3.2 -1 ------- null}
- -t 0.000169788487334637 -s 0 -d 3 -p rtProtoDV -e 5 -c 0 -i 2 -a 0 -x {0.2 3.2 -1 ------- null}
h -t 0.000169788487334637 -s 0 -d 3 -p rtProtoDV -e 5 -c 0 -i 2 -a 0 -x {0.2 3.2 -1 ------- null}
+ -t 0.000169788487334637 -s 0 -d 4 -p rtProtoDV -e 5 -c 0 -i 3 -a 0 -x {0.2 4.2 -1 ------- null}
- -t 0.000169788487334637 -s 0 -d 4 -p rtProtoDV -e 5 -c 0 -i 3 -a 0 -x {0.2 4.2 -1 ------- null}
h -t 0.000169788487334637 -s 0 -d 4 -p rtProtoDV -e 5 -c 0 -i 3 -a 0 -x {0.2 4.2 -1 ------- null}
r -t 0.00520978848733464 -s 0 -d 1 -p rtProtoDV -e 5 -c 0 -i 0 -a 0 -x {0.2 1.2 -1 ------- null}
r -t 0.00520978848733464 -s 0 -d 2 -p rtProtoDV -e 5 -c 0 -i 1 -a 0 -x {0.2 2.2 -1 ------- null}
r -t 0.00520978848733464 -s 0 -d 3 -p rtProtoDV -e 5 -c 0 -i 2 -a 0 -x {0.2 3.2 -1 ------- null}
r -t 0.00520978848733464 -s 0 -d 4 -p rtProtoDV -e 5 -c 0 -i 3 -a 0 -x {0.2 4.2 -1 ------- null}
+ -t 0.00710233021858257 -s 2 -d 0 -p rtProtoDV -e 5 -c 0 -i 4 -a 0 -x {2.2 0.2 -1 ------- null}
- -t 0.00710233021858257 -s 2 -d 0 -p rtProtoDV -e 5 -c 0 -i 4 -a 0 -x {2.2 0.2 -1 ------- null}
h -t 0.00710233021858257 -s 2 -d 0 -p rtProtoDV -e 5 -c 0 -i 4 -a 0 -x {2.2 0.2 -1 ------- null}
+ -t 0.00710233021858257 -s 2 -d 1 -p rtProtoDV -e 5 -c 0 -i 5 -a 0 -x {2.2 1.2 -1 ------- null}
- -t 0.00710233021858257 -s 2 -d 1 -p rtProtoDV -e 5 -c 0 -i 5 -a 0 -x {2.2 1.2 -1 ------- null}
h -t 0.00710233021858257 -s 2 -d 1 -p rtProtoDV -e 5 -c 0 -i 5 -a 0 -x {2.2 1.2 -1 ------- null}
+ -t 0.00710233021858257 -s 2 -d 3 -p rtProtoDV -e 5 -c 0 -i 6 -a 0 -x {2.2 3.2 -1 ------- null}
- -t 0.00710233021858257 -s 2 -d 3 -p rtProtoDV -e 5 -c 0 -i 6 -a 0 -x {2.2 3.2 -1 ------- null}
h -t 0.00710233021858257 -s 2 -d 3 -p rtProtoDV -e 5 -c 0 -i 6 -a 0 -x {2.2 3.2 -1 ------- null}
+ -t 0.00710233021858257 -s 2 -d 4 -p rtProtoDV -e 5 -c 0 -i 7 -a 0 -x {2.2 4.2 -1 ------- null}
- -t 0.00710233021858257 -s 2 -d 4 -p rtProtoDV -e 5 -c 0 -i 7 -a 0 -x {2.2 4.2 -1 ------- null}
h -t 0.00710233021858257 -s 2 -d 4 -p rtProtoDV -e 5 -c 0 -i 7 -a 0 -x {2.2 4.2 -1 ------- null}
r -t 0.0121423302185826 -s 2 -d 0 -p rtProtoDV -e 5 -c 0 -i 4 -a 0 -x {2.2 0.2 -1 ------- null}
r -t 0.0121423302185826 -s 2 -d 1 -p rtProtoDV -e 5 -c 0 -i 5 -a 0 -x {2.2 1.2 -1 ------- null}
r -t 0.0121423302185826 -s 2 -d 3 -p rtProtoDV -e 5 -c 0 -i 6 -a 0 -x {2.2 3.2 -1 ------- null}
r -t 0.0121423302185826 -s 2 -d 4 -p rtProtoDV -e 5 -c 0 -i 7 -a 0 -x {2.2 4.2 -1 ------- null}
+ -t 0.04406133552271 -s 3 -d 0 -p rtProtoDV -e 5 -c 0 -i 8 -a 0 -x {3.2 0.2 -1 ------- null}
- -t 0.04406133552271 -s 3 -d 0 -p rtProtoDV -e 5 -c 0 -i 8 -a 0 -x {3.2 0.2 -1 ------- null}
h -t 0.04406133552271 -s 3 -d 0 -p rtProtoDV -e 5 -c 0 -i 8 -a 0 -x {3.2 0.2 -1 ------- null}
+ -t 0.04406133552271 -s 3 -d 1 -p rtProtoDV -e 5 -c 0 -i 9 -a 0 -x {3.2 1.2 -1 ------- null}
- -t 0.04406133552271 -s 3 -d 1 -p rtProtoDV -e 5 -c 0 -i 9 -a 0 -x {3.2 1.2 -1 ------- null}
h -t 0.04406133552271 -s 3 -d 1 -p rtProtoDV -e 5 -c 0 -i 9 -a 0 -x {3.2 1.2 -1 ------- null}
+ -t 0.04406133552271 -s 3 -d 2 -p rtProtoDV -e 5 -c 0 -i 10 -a 0 -x {3.2 2.2 -1 ------- null}
- -t 0.04406133552271 -s 3 -d 2 -p rtProtoDV -e 5 -c 0 -i 10 -a 0 -x {3.2 2.2 -1 ------- null}
h -t 0.04406133552271 -s 3 -d 2 -p rtProtoDV -e 5 -c 0 -i 10 -a 0 -x {3.2 2.2 -1 ------- null}
+ -t 0.04406133552271 -s 3 -d 4 -p rtProtoDV -e 5 -c 0 -i 11 -a 0 -x {3.2 4.2 -1 ------- null}
- -t 0.04406133552271 -s 3 -d 4 -p rtProtoDV -e 5 -c 0 -i 11 -a 0 -x {3.2 4.2 -1 ------- null}
h -t 0.04406133552271 -s 3 -d 4 -p rtProtoDV -e 5 -c 0 -i 11 -a 0 -x {3.2 4.2 -1 ------- null}
r -t 0.04910133552271 -s 3 -d 0 -p rtProtoDV -e 5 -c 0 -i 8 -a 0 -x {3.2 0.2 -1 ------- null}
r -t 0.04910133552271 -s 3 -d 1 -p rtProtoDV -e 5 -c 0 -i 9 -a 0 -x {3.2 1.2 -1 ------- null}
r -t 0.04910133552271 -s 3 -d 2 -p rtProtoDV -e 5 -c 0 -i 10 -a 0 -x {3.2 2.2 -1 ------- null}
r -t 0.04910133552271 -s 3 -d 4 -p rtProtoDV -e 5 -c 0 -i 11 -a 0 -x {3.2 4.2 -1 ------- null}
+ -t 0.1 -s 1 -d 0 -p tcp -e 40 -c 0 -i 12 -a 0 -x {1.0 0.0 0 ------- null}
- -t 0.1 -s 1 -d 0 -p tcp -e 40 -c 0 -i 12 -a 0 -x {1.0 0.0 0 ------- null}
h -t 0.1 -s 1 -d 0 -p tcp -e 40 -c 0 -i 12 -a 0 -x {1.0 0.0 -1 ------- null}
+ -t 0.1 -s 3 -d 2 -p tcp -e 40 -c 0 -i 13 -a 0 -x {3.0 2.0 0 ------- null}
- -t 0.1 -s 3 -d 2 -p tcp -e 40 -c 0 -i 13 -a 0 -x {3.0 2.0 0 ------- null}
h -t 0.1 -s 3 -d 2 -p tcp -e 40 -c 0 -i 13 -a 0 -x {3.0 2.0 -1 ------- null}
r -t 0.10532 -s 1 -d 0 -p tcp -e 40 -c 0 -i 12 -a 0 -x {1.0 0.0 0 ------- null}
+ -t 0.10532 -s 0 -d 1 -p ack -e 40 -c 0 -i 14 -a 0 -x {0.0 1.0 0 ------- null}
- -t 0.10532 -s 0 -d 1 -p ack -e 40 -c 0 -i 14 -a 0 -x {0.0 1.0 0 ------- null}
h -t 0.10532 -s 0 -d 1 -p ack -e 40 -c 0 -i 14 -a 0 -x {0.0 1.0 -1 ------- null}
r -t 0.10532 -s 3 -d 2 -p tcp -e 40 -c 0 -i 13 -a 0 -x {3.0 2.0 0 ------- null}
+ -t 0.10532 -s 2 -d 3 -p ack -e 40 -c 0 -i 15 -a 0 -x {2.0 3.0 0 ------- null}
- -t 0.10532 -s 2 -d 3 -p ack -e 40 -c 0 -i 15 -a 0 -x {2.0 3.0 0 ------- null}
h -t 0.10532 -s 2 -d 3 -p ack -e 40 -c 0 -i 15 -a 0 -x {2.0 3.0 -1 ------- null}
r -t 0.11064 -s 0 -d 1 -p ack -e 40 -c 0 -i 14 -a 0 -x {0.0 1.0 0 ------- null}
+ -t 0.11064 -s 1 -d 0 -p tcp -e 1064 -c 0 -i 16 -a 0 -x {1.0 0.0 1 ------- null}
- -t 0.11064 -s 1 -d 0 -p tcp -e 1064 -c 0 -i 16 -a 0 -x {1.0 0.0 1 ------- null}
h -t 0.11064 -s 1 -d 0 -p tcp -e 1064 -c 0 -i 16 -a 0 -x {1.0 0.0 -1 ------- null}
+ -t 0.11064 -s 1 -d 0 -p tcp -e 1064 -c 0 -i 17 -a 0 -x {1.0 0.0 2 ------- null}
r -t 0.11064 -s 2 -d 3 -p ack -e 40 -c 0 -i 15 -a 0 -x {2.0 3.0 0 ------- null}
+ -t 0.11064 -s 3 -d 2 -p tcp -e 1064 -c 0 -i 18 -a 0 -x {3.0 2.0 1 ------- null}
- -t 0.11064 -s 3 -d 2 -p tcp -e 1064 -c 0 -i 18 -a 0 -x {3.0 2.0 1 ------- null}
h -t 0.11064 -s 3 -d 2 -p tcp -e 1064 -c 0 -i 18 -a 0 -x {3.0 2.0 -1 ------- null}
+ -t 0.11064 -s 3 -d 2 -p tcp -e 1064 -c 0 -i 19 -a 0 -x {3.0 2.0 2 ------- null}
- -t 0.119152 -s 1 -d 0 -p tcp -e 1064 -c 0 -i 17 -a 0 -x {1.0 0.0 2 ------- null}
h -t 0.119152 -s 1 -d 0 -p tcp -e 1064 -c 0 -i 17 -a 0 -x {1.0 0.0 -1 ------- null}
- -t 0.119152 -s 3 -d 2 -p tcp -e 1064 -c 0 -i 19 -a 0 -x {3.0 2.0 2 ------- null}
h -t 0.119152 -s 3 -d 2 -p tcp -e 1064 -c 0 -i 19 -a 0 -x {3.0 2.0 -1 ------- null}
r -t 0.124152 -s 1 -d 0 -p tcp -e 1064 -c 0 -i 16 -a 0 -x {1.0 0.0 1 ------- null}
+ -t 0.124152 -s 0 -d 1 -p ack -e 40 -c 0 -i 20 -a 0 -x {0.0 1.0 1 ------- null}
- -t 0.124152 -s 0 -d 1 -p ack -e 40 -c 0 -i 20 -a 0 -x {0.0 1.0 1 ------- null}
h -t 0.124152 -s 0 -d 1 -p ack -e 40 -c 0 -i 20 -a 0 -x {0.0 1.0 -1 ------- null}
r -t 0.124152 -s 3 -d 2 -p tcp -e 1064 -c 0 -i 18 -a 0 -x {3.0 2.0 1 ------- null}
+ -t 0.124152 -s 2 -d 3 -p ack -e 40 -c 0 -i 21 -a 0 -x {2.0 3.0 1 ------- null}
- -t 0.124152 -s 2 -d 3 -p ack -e 40 -c 0 -i 21 -a 0 -x {2.0 3.0 1 ------- null}
h -t 0.124152 -s 2 -d 3 -p ack -e 40 -c 0 -i 21 -a 0 -x {2.0 3.0 -1 ------- null}
r -t 0.129472 -s 0 -d 1 -p ack -e 40 -c 0 -i 20 -a 0 -x {0.0 1.0 1 ------- null}
+ -t 0.129472 -s 1 -d 0 -p tcp -e 1064 -c 0 -i 22 -a 0 -x {1.0 0.0 3 ------- null}
- -t 0.129472 -s 1 -d 0 -p tcp -e 1064 -c 0 -i 22 -a 0 -x {1.0 0.0 3 ------- null}
h -t 0.129472 -s 1 -d 0 -p tcp -e 1064 -c 0 -i 22 -a 0 -x {1.0 0.0 -1 ------- null}
+ -t 0.129472 -s 1 -d 0 -p tcp -e 1064 -c 0 -i 23 -a 0 -x {1.0 0.0 4 ------- null}
r -t 0.129472 -s 2 -d 3 -p ack -e 40 -c 0 -i 21 -a 0 -x {2.0 3.0 1 ------- null}
+ -t 0.129472 -s 3 -d 2 -p tcp -e 1064 -c 0 -i 24 -a 0 -x {3.0 2.0 3 ------- null}
- -t 0.129472 -s 3 -d 2 -p tcp -e 1064 -c 0 -i 24 -a 0 -x {3.0 2.0 3 ------- null}
h -t 0.129472 -s 3 -d 2 -p tcp -e 1064 -c 0 -i 24 -a 0 -x {3.0 2.0 -1 ------- null}
+ -t 0.129472 -s 3 -d 2 -p tcp -e 1064 -c 0 -i 25 -a 0 -x {3.0 2.0 4 ------- null}
r -t 0.132664 -s 1 -d 0 -p tcp -e 1064 -c 0 -i 17 -a 0 -x {1.0 0.0 2 ------- null}
+ -t 0.132664 -s 0 -d 1 -p ack -e 40 -c 0 -i 26 -a 0 -x {0.0 1.0 2 ------- null}
- -t 0.132664 -s 0 -d 1 -p ack -e 40 -c 0 -i 26 -a 0 -x {0.0 1.0 2 ------- null}
h -t 0.132664 -s 0 -d 1 -p ack -e 40 -c 0 -i 26 -a 0 -x {0.0 1.0 -1 ------- null}
r -t 0.132664 -s 3 -d 2 -p tcp -e 1064 -c 0 -i 19 -a 0 -x {3.0 2.0 2 ------- null}
+ -t 0.132664 -s 2 -d 3 -p ack -e 40 -c 0 -i 27 -a 0 -x {2.0 3.0 2 ------- null}
- -t 0.132664 -s 2 -d 3 -p ack -e 40 -c 0 -i 27 -a 0 -x {2.0 3.0 2 ------- null}
h -t 0.132664 -s 2 -d 3 -p ack -e 40 -c 0 -i 27 -a 0 -x {2.0 3.0 -1 ------- null}
- -t 0.137984 -s 1 -d 0 -p tcp -e 1064 -c 0 -i 23 -a 0 -x {1.0 0.0 4 ------- null}
h -t 0.137984 -s 1 -d 0 -p tcp -e 1064 -c 0 -i 23 -a 0 -x {1.0 0.0 -1 ------- null}
- -t 0.137984 -s 3 -d 2 -p tcp -e 1064 -c 0 -i 25 -a 0 -x {3.0 2.0 4 ------- null}
h -t 0.137984 -s 3 -d 2 -p tcp -e 1064 -c 0 -i 25 -a 0 -x {3.0 2.0 -1 ------- null}
r -t 0.137984 -s 0 -d 1 -p ack -e 40 -c 0 -i 26 -a 0 -x {0.0 1.0 2 ------- null}
+ -t 0.137984 -s 1 -d 0 -p tcp -e 1064 -c 0 -i 28 -a 0 -x {1.0 0.0 5 ------- null}
+ -t 0.137984 -s 1 -d 0 -p tcp -e 1064 -c 0 -i 29 -a 0 -x {1.0 0.0 6 ------- null}
r -t 0.137984 -s 2 -d 3 -p ack -e 40 -c 0 -i 27 -a 0 -x {2.0 3.0 2 ------- null}
+ -t 0.137984 -s 3 -d 2 -p tcp -e 1064 -c 0 -i 30 -a 0 -x {3.0 2.0 5 ------- null}
+ -t 0.137984 -s 3 -d 2 -p tcp -e 1064 -c 0 -i 31 -a 0 -x {3.0 2.0 6 ------- null}
r -t 0.142984 -s 1 -d 0 -p tcp -e 1064 -c 0 -i 22 -a 0 -x {1.0 0.0 3 ------- null}
+ -t 0.142984 -s 0 -d 1 -p ack -e 40 -c 0 -i 32 -a 0 -x {0.0 1.0 3 ------- null}
- -t 0.142984 -s 0 -d 1 -p ack -e 40 -c 0 -i 32 -a 0 -x {0.0 1.0 3 ------- null}
h -t 0.142984 -s 0 -d 1 -p ack -e 40 -c 0 -i 32 -a 0 -x {0.0 1.0 -1 ------- null}
r -t 0.142984 -s 3 -d 2 -p tcp -e 1064 -c 0 -i 24 -a 0 -x {3.0 2.0 3 ------- null}
+ -t 0.142984 -s 2 -d 3 -p ack -e 40 -c 0 -i 33 -a 0 -x {2.0 3.0 3 ------- null}
- -t 0.142984 -s 2 -d 3 -p ack -e 40 -c 0 -i 33 -a 0 -x {2.0 3.0 3 ------- null}
h -t 0.142984 -s 2 -d 3 -p ack -e 40 -c 0 -i 33 -a 0 -x {2.0 3.0 -1 ------- null}
- -t 0.146496 -s 1 -d 0 -p tcp -e 1064 -c 0 -i 28 -a 0 -x {1.0 0.0 5 ------- null}
h -t 0.146496 -s 1 -d 0 -p tcp -e 1064 -c 0 -i 28 -a 0 -x {1.0 0.0 -1 ------- null}
- -t 0.146496 -s 3 -d 2 -p tcp -e 1064 -c 0 -i 30 -a 0 -x {3.0 2.0 5 ------- null}
h -t 0.146496 -s 3 -d 2 -p tcp -e 1064 -c 0 -i 30 -a 0 -x {3.0 2.0 -1 ------- null}
r -t 0.148304 -s 0 -d 1 -p ack -e 40 -c 0 -i 32 -a 0 -x {0.0 1.0 3 ------- null}
+ -t 0.148304 -s 1 -d 0 -p tcp -e 1064 -c 0 -i 34 -a 0 -x {1.0 0.0 7 ------- null}
+ -t 0.148304 -s 1 -d 0 -p tcp -e 1064 -c 0 -i 35 -a 0 -x {1.0 0.0 8 ------- null}
r -t 0.148304 -s 2 -d 3 -p ack -e 40 -c 0 -i 33 -a 0 -x {2.0 3.0 3 ------- null}
+ -t 0.148304 -s 3 -d 2 -p tcp -e 1064 -c 0 -i 36 -a 0 -x {3.0 2.0 7 ------- null}
+ -t 0.148304 -s 3 -d 2 -p tcp -e 1064 -c 0 -i 37 -a 0 -x {3.0 2.0 8 ------- null}
r -t 0.151496 -s 1 -d 0 -p tcp -e 1064 -c 0 -i 23 -a 0 -x {1.0 0.0 4 ------- null}
+ -t 0.151496 -s 0 -d 1 -p ack -e 40 -c 0 -i 38 -a 0 -x {0.0 1.0 4 ------- null}
- -t 0.151496 -s 0 -d 1 -p ack -e 40 -c 0 -i 38 -a 0 -x {0.0 1.0 4 ------- null}
h -t 0.151496 -s 0 -d 1 -p ack -e 40 -c 0 -i 38 -a 0 -x {0.0 1.0 -1 ------- null}
r -t 0.151496 -s 3 -d 2 -p tcp -e 1064 -c 0 -i 25 -a 0 -x {3.0 2.0 4 ------- null}
+ -t 0.151496 -s 2 -d 3 -p ack -e 40 -c 0 -i 39 -a 0 -x {2.0 3.0 4 ------- null}
- -t 0.151496 -s 2 -d 3 -p ack -e 40 -c 0 -i 39 -a 0 -x {2.0 3.0 4 ------- null}
h -t 0.151496 -s 2 -d 3 -p ack -e 40 -c 0 -i 39 -a 0 -x {2.0 3.0 -1 ------- null}
- -t 0.155008 -s 1 -d 0 -p tcp -e 1064 -c 0 -i 29 -a 0 -x {1.0 0.0 6 ------- null}
h -t 0.155008 -s 1 -d 0 -p tcp -e 1064 -c 0 -i 29 -a 0 -x {1.0 0.0 -1 ------- null}
- -t 0.155008 -s 3 -d 2 -p tcp -e 1064 -c 0 -i 31 -a 0 -x {3.0 2.0 6 ------- null}
h -t 0.155008 -s 3 -d 2 -p tcp -e 1064 -c 0 -i 31 -a 0 -x {3.0 2.0 -1 ------- null}
r -t 0.156816 -s 0 -d 1 -p ack -e 40 -c 0 -i 38 -a 0 -x {0.0 1.0 4 ------- null}
+ -t 0.156816 -s 1 -d 0 -p tcp -e 1064 -c 0 -i 40 -a 0 -x {1.0 0.0 9 ------- null}
+ -t 0.156816 -s 1 -d 0 -p tcp -e 1064 -c 0 -i 41 -a 0 -x {1.0 0.0 10 ------- null}
r -t 0.156816 -s 2 -d 3 -p ack -e 40 -c 0 -i 39 -a 0 -x {2.0 3.0 4 ------- null}
+ -t 0.156816 -s 3 -d 2 -p tcp -e 1064 -c 0 -i 42 -a 0 -x {3.0 2.0 9 ------- null}
+ -t 0.156816 -s 3 -d 2 -p tcp -e 1064 -c 0 -i 43 -a 0 -x {3.0 2.0 10 ------- null}
r -t 0.160008 -s 1 -d 0 -p tcp -e 1064 -c 0 -i 28 -a 0 -x {1.0 0.0 5 ------- null}
+ -t 0.160008 -s 0 -d 1 -p ack -e 40 -c 0 -i 44 -a 0 -x {0.0 1.0 5 ------- null}
- -t 0.160008 -s 0 -d 1 -p ack -e 40 -c 0 -i 44 -a 0 -x {0.0 1.0 5 ------- null}
h -t 0.160008 -s 0 -d 1 -p ack -e 40 -c 0 -i 44 -a 0 -x {0.0 1.0 -1 ------- null}
r -t 0.160008 -s 3 -d 2 -p tcp -e 1064 -c 0 -i 30 -a 0 -x {3.0 2.0 5 ------- null}
+ -t 0.160008 -s 2 -d 3 -p ack -e 40 -c 0 -i 45 -a 0 -x {2.0 3.0 5 ------- null}
- -t 0.160008 -s 2 -d 3 -p ack -e 40 -c 0 -i 45 -a 0 -x {2.0 3.0 5 ------- null}
h -t 0.160008 -s 2 -d 3 -p ack -e 40 -c 0 -i 45 -a 0 -x {2.0 3.0 -1 ------- null}
- -t 0.16352 -s 1 -d 0 -p tcp -e 1064 -c 0 -i 34 -a 0 -x {1.0 0.0 7 ------- null}
h -t 0.16352 -s 1 -d 0 -p tcp -e 1064 -c 0 -i 34 -a 0 -x {1.0 0.0 -1 ------- null}
- -t 0.16352 -s 3 -d 2 -p tcp -e 1064 -c 0 -i 36 -a 0 -x {3.0 2.0 7 ------- null}
h -t 0.16352 -s 3 -d 2 -p tcp -e 1064 -c 0 -i 36 -a 0 -x {3.0 2.0 -1 ------- null}
r -t 0.165328 -s 0 -d 1 -p ack -e 40 -c 0 -i 44 -a 0 -x {0.0 1.0 5 ------- null}
+ -t 0.165328 -s 1 -d 0 -p tcp -e 1064 -c 0 -i 46 -a 0 -x {1.0 0.0 11 ------- null}
+ -t 0.165328 -s 1 -d 0 -p tcp -e 1064 -c 0 -i 47 -a 0 -x {1.0 0.0 12 ------- null}
r -t 0.165328 -s 2 -d 3 -p ack -e 40 -c 0 -i 45 -a 0 -x {2.0 3.0 5 ------- null}
+ -t 0.165328 -s 3 -d 2 -p tcp -e 1064 -c 0 -i 48 -a 0 -x {3.0 2.0 11 ------- null}
+ -t 0.165328 -s 3 -d 2 -p tcp -e 1064 -c 0 -i 49 -a 0 -x {3.0 2.0 12 ------- null}
r -t 0.16852 -s 1 -d 0 -p tcp -e 1064 -c 0 -i 29 -a 0 -x {1.0 0.0 6 ------- null}
+ -t 0.16852 -s 0 -d 1 -p ack -e 40 -c 0 -i 50 -a 0 -x {0.0 1.0 6 ------- null}
- -t 0.16852 -s 0 -d 1 -p ack -e 40 -c 0 -i 50 -a 0 -x {0.0 1.0 6 ------- null}
h -t 0.16852 -s 0 -d 1 -p ack -e 40 -c 0 -i 50 -a 0 -x {0.0 1.0 -1 ------- null}
r -t 0.16852 -s 3 -d 2 -p tcp -e 1064 -c 0 -i 31 -a 0 -x {3.0 2.0 6 ------- null}
+ -t 0.16852 -s 2 -d 3 -p ack -e 40 -c 0 -i 51 -a 0 -x {2.0 3.0 6 ------- null}
- -t 0.16852 -s 2 -d 3 -p ack -e 40 -c 0 -i 51 -a 0 -x {2.0 3.0 6 ------- null}
h -t 0.16852 -s 2 -d 3 -p ack -e 40 -c 0 -i 51 -a 0 -x {2.0 3.0 -1 ------- null}
- -t 0.172032 -s 1 -d 0 -p tcp -e 1064 -c 0 -i 35 -a 0 -x {1.0 0.0 8 ------- null}
h -t 0.172032 -s 1 -d 0 -p tcp -e 1064 -c 0 -i 35 -a 0 -x {1.0 0.0 -1 ------- null}
- -t 0.172032 -s 3 -d 2 -p tcp -e 1064 -c 0 -i 37 -a 0 -x {3.0 2.0 8 ------- null}
h -t 0.172032 -s 3 -d 2 -p tcp -e 1064 -c 0 -i 37 -a 0 -x {3.0 2.0 -1 ------- null}
r -t 0.17384 -s 0 -d 1 -p ack -e 40 -c 0 -i 50 -a 0 -x {0.0 1.0 6 ------- null}
+ -t 0.17384 -s 1 -d 0 -p tcp -e 1064 -c 0 -i 52 -a 0 -x {1.0 0.0 13 ------- null}
+ -t 0.17384 -s 1 -d 0 -p tcp -e 1064 -c 0 -i 53 -a 0 -x {1.0 0.0 14 ------- null}
r -t 0.17384 -s 2 -d 3 -p ack -e 40 -c 0 -i 51 -a 0 -x {2.0 3.0 6 ------- null}
+ -t 0.17384 -s 3 -d 2 -p tcp -e 1064 -c 0 -i 54 -a 0 -x {3.0 2.0 13 ------- null}
+ -t 0.17384 -s 3 -d 2 -p tcp -e 1064 -c 0 -i 55 -a 0 -x {3.0 2.0 14 ------- null}
r -t 0.177032 -s 1 -d 0 -p tcp -e 1064 -c 0 -i 34 -a 0 -x {1.0 0.0 7 ------- null}
+ -t 0.177032 -s 0 -d 1 -p ack -e 40 -c 0 -i 56 -a 0 -x {0.0 1.0 7 ------- null}
- -t 0.177032 -s 0 -d 1 -p ack -e 40 -c 0 -i 56 -a 0 -x {0.0 1.0 7 ------- null}
h -t 0.177032 -s 0 -d 1 -p ack -e 40 -c 0 -i 56 -a 0 -x {0.0 1.0 -1 ------- null}
r -t 0.177032 -s 3 -d 2 -p tcp -e 1064 -c 0 -i 36 -a 0 -x {3.0 2.0 7 ------- null}
+ -t 0.177032 -s 2 -d 3 -p ack -e 40 -c 0 -i 57 -a 0 -x {2.0 3.0 7 ------- null}
- -t 0.177032 -s 2 -d 3 -p ack -e 40 -c 0 -i 57 -a 0 -x {2.0 3.0 7 ------- null}
h -t 0.177032 -s 2 -d 3 -p ack -e 40 -c 0 -i 57 -a 0 -x {2.0 3.0 -1 ------- null}
- -t 0.180544 -s 1 -d 0 -p tcp -e 1064 -c 0 -i 40 -a 0 -x {1.0 0.0 9 ------- null}
h -t 0.180544 -s 1 -d 0 -p tcp -e 1064 -c 0 -i 40 -a 0 -x {1.0 0.0 -1 ------- null}
- -t 0.180544 -s 3 -d 2 -p tcp -e 1064 -c 0 -i 42 -a 0 -x {3.0 2.0 9 ------- null}
h -t 0.180544 -s 3 -d 2 -p tcp -e 1064 -c 0 -i 42 -a 0 -x {3.0 2.0 -1 ------- null}
r -t 0.182352 -s 0 -d 1 -p ack -e 40 -c 0 -i 56 -a 0 -x {0.0 1.0 7 ------- null}
+ -t 0.182352 -s 1 -d 0 -p tcp -e 1064 -c 0 -i 58 -a 0 -x {1.0 0.0 15 ------- null}
+ -t 0.182352 -s 1 -d 0 -p tcp -e 1064 -c 0 -i 59 -a 0 -x {1.0 0.0 16 ------- null}
r -t 0.182352 -s 2 -d 3 -p ack -e 40 -c 0 -i 57 -a 0 -x {2.0 3.0 7 ------- null}
+ -t 0.182352 -s 3 -d 2 -p tcp -e 1064 -c 0 -i 60 -a 0 -x {3.0 2.0 15 ------- null}
+ -t 0.182352 -s 3 -d 2 -p tcp -e 1064 -c 0 -i 61 -a 0 -x {3.0 2.0 16 ------- null}
r -t 0.185544 -s 1 -d 0 -p tcp -e 1064 -c 0 -i 35 -a 0 -x {1.0 0.0 8 ------- null}
+ -t 0.185544 -s 0 -d 1 -p ack -e 40 -c 0 -i 62 -a 0 -x {0.0 1.0 8 ------- null}
- -t 0.185544 -s 0 -d 1 -p ack -e 40 -c 0 -i 62 -a 0 -x {0.0 1.0 8 ------- null}
h -t 0.185544 -s 0 -d 1 -p ack -e 40 -c 0 -i 62 -a 0 -x {0.0 1.0 -1 ------- null}
r -t 0.185544 -s 3 -d 2 -p tcp -e 1064 -c 0 -i 37 -a 0 -x {3.0 2.0 8 ------- null}
+ -t 0.185544 -s 2 -d 3 -p ack -e 40 -c 0 -i 63 -a 0 -x {2.0 3.0 8 ------- null}
- -t 0.185544 -s 2 -d 3 -p ack -e 40 -c 0 -i 63 -a 0 -x {2.0 3.0 8 ------- null}
h -t 0.185544 -s 2 -d 3 -p ack -e 40 -c 0 -i 63 -a 0 -x {2.0 3.0 -1 ------- null}
- -t 0.189056 -s 1 -d 0 -p tcp -e 1064 -c 0 -i 41 -a 0 -x {1.0 0.0 10 ------- null}
h -t 0.189056 -s 1 -d 0 -p tcp -e 1064 -c 0 -i 41 -a 0 -x {1.0 0.0 -1 ------- null}
- -t 0.189056 -s 3 -d 2 -p tcp -e 1064 -c 0 -i 43 -a 0 -x {3.0 2.0 10 ------- null}
h -t 0.189056 -s 3 -d 2 -p tcp -e 1064 -c 0 -i 43 -a 0 -x {3.0 2.0 -1 ------- null}
r -t 0.190864 -s 0 -d 1 -p ack -e 40 -c 0 -i 62 -a 0 -x {0.0 1.0 8 ------- null}
+ -t 0.190864 -s 1 -d 0 -p tcp -e 1064 -c 0 -i 64 -a 0 -x {1.0 0.0 17 ------- null}
+ -t 0.190864 -s 1 -d 0 -p tcp -e 1064 -c 0 -i 65 -a 0 -x {1.0 0.0 18 ------- null}
r -t 0.190864 -s 2 -d 3 -p ack -e 40 -c 0 -i 63 -a 0 -x {2.0 3.0 8 ------- null}
+ -t 0.190864 -s 3 -d 2 -p tcp -e 1064 -c 0 -i 66 -a 0 -x {3.0 2.0 17 ------- null}
+ -t 0.190864 -s 3 -d 2 -p tcp -e 1064 -c 0 -i 67 -a 0 -x {3.0 2.0 18 ------- null}
r -t 0.194056 -s 1 -d 0 -p tcp -e 1064 -c 0 -i 40 -a 0 -x {1.0 0.0 9 ------- null}
+ -t 0.194056 -s 0 -d 1 -p ack -e 40 -c 0 -i 68 -a 0 -x {0.0 1.0 9 ------- null}
- -t 0.194056 -s 0 -d 1 -p ack -e 40 -c 0 -i 68 -a 0 -x {0.0 1.0 9 ------- null}
h -t 0.194056 -s 0 -d 1 -p ack -e 40 -c 0 -i 68 -a 0 -x {0.0 1.0 -1 ------- null}
r -t 0.194056 -s 3 -d 2 -p tcp -e 1064 -c 0 -i 42 -a 0 -x {3.0 2.0 9 ------- null}
+ -t 0.194056 -s 2 -d 3 -p ack -e 40 -c 0 -i 69 -a 0 -x {2.0 3.0 9 ------- null}
- -t 0.194056 -s 2 -d 3 -p ack -e 40 -c 0 -i 69 -a 0 -x {2.0 3.0 9 ------- null}
h -t 0.194056 -s 2 -d 3 -p ack -e 40 -c 0 -i 69 -a 0 -x {2.0 3.0 -1 ------- null}
- -t 0.197568 -s 1 -d 0 -p tcp -e 1064 -c 0 -i 46 -a 0 -x {1.0 0.0 11 ------- null}
h -t 0.197568 -s 1 -d 0 -p tcp -e 1064 -c 0 -i 46 -a 0 -x {1.0 0.0 -1 ------- null}
- -t 0.197568 -s 3 -d 2 -p tcp -e 1064 -c 0 -i 48 -a 0 -x {3.0 2.0 11 ------- null}
h -t 0.197568 -s 3 -d 2 -p tcp -e 1064 -c 0 -i 48 -a 0 -x {3.0 2.0 -1 ------- null}
r -t 0.199376 -s 0 -d 1 -p ack -e 40 -c 0 -i 68 -a 0 -x {0.0 1.0 9 ------- null}
+ -t 0.199376 -s 1 -d 0 -p tcp -e 1064 -c 0 -i 70 -a 0 -x {1.0 0.0 19 ------- null}
+ -t 0.199376 -s 1 -d 0 -p tcp -e 1064 -c 0 -i 71 -a 0 -x {1.0 0.0 20 ------- null}
r -t 0.199376 -s 2 -d 3 -p ack -e 40 -c 0 -i 69 -a 0 -x {2.0 3.0 9 ------- null}
+ -t 0.199376 -s 3 -d 2 -p tcp -e 1064 -c 0 -i 72 -a 0 -x {3.0 2.0 19 ------- null}
+ -t 0.199376 -s 3 -d 2 -p tcp -e 1064 -c 0 -i 73 -a 0 -x {3.0 2.0 20 ------- null}
r -t 0.202568 -s 1 -d 0 -p tcp -e 1064 -c 0 -i 41 -a 0 -x {1.0 0.0 10 ------- null}
+ -t 0.202568 -s 0 -d 1 -p ack -e 40 -c 0 -i 74 -a 0 -x {0.0 1.0 10 ------- null}
- -t 0.202568 -s 0 -d 1 -p ack -e 40 -c 0 -i 74 -a 0 -x {0.0 1.0 10 ------- null}
h -t 0.202568 -s 0 -d 1 -p ack -e 40 -c 0 -i 74 -a 0 -x {0.0 1.0 -1 ------- null}
r -t 0.202568 -s 3 -d 2 -p tcp -e 1064 -c 0 -i 43 -a 0 -x {3.0 2.0 10 ------- null}
+ -t 0.202568 -s 2 -d 3 -p ack -e 40 -c 0 -i 75 -a 0 -x {2.0 3.0 10 ------- null}
- -t 0.202568 -s 2 -d 3 -p ack -e 40 -c 0 -i 75 -a 0 -x {2.0 3.0 10 ------- null}
h -t 0.202568 -s 2 -d 3 -p ack -e 40 -c 0 -i 75 -a 0 -x {2.0 3.0 -1 ------- null}
- -t 0.20608 -s 1 -d 0 -p tcp -e 1064 -c 0 -i 47 -a 0 -x {1.0 0.0 12 ------- null}
h -t 0.20608 -s 1 -d 0 -p tcp -e 1064 -c 0 -i 47 -a 0 -x {1.0 0.0 -1 ------- null}
- -t 0.20608 -s 3 -d 2 -p tcp -e 1064 -c 0 -i 49 -a 0 -x {3.0 2.0 12 ------- null}
h -t 0.20608 -s 3 -d 2 -p tcp -e 1064 -c 0 -i 49 -a 0 -x {3.0 2.0 -1 ------- null}
r -t 0.207888 -s 0 -d 1 -p ack -e 40 -c 0 -i 74 -a 0 -x {0.0 1.0 10 ------- null}
+ -t 0.207888 -s 1 -d 0 -p tcp -e 1064 -c 0 -i 76 -a 0 -x {1.0 0.0 21 ------- null}
+ -t 0.207888 -s 1 -d 0 -p tcp -e 1064 -c 0 -i 77 -a 0 -x {1.0 0.0 22 ------- null}
r -t 0.207888 -s 2 -d 3 -p ack -e 40 -c 0 -i 75 -a 0 -x {2.0 3.0 10 ------- null}
+ -t 0.207888 -s 3 -d 2 -p tcp -e 1064 -c 0 -i 78 -a 0 -x {3.0 2.0 21 ------- null}
+ -t 0.207888 -s 3 -d 2 -p tcp -e 1064 -c 0 -i 79 -a 0 -x {3.0 2.0 22 ------- null}
r -t 0.21108 -s 1 -d 0 -p tcp -e 1064 -c 0 -i 46 -a 0 -x {1.0 0.0 11 ------- null}
+ -t 0.21108 -s 0 -d 1 -p ack -e 40 -c 0 -i 80 -a 0 -x {0.0 1.0 11 ------- null}
- -t 0.21108 -s 0 -d 1 -p ack -e 40 -c 0 -i 80 -a 0 -x {0.0 1.0 11 ------- null}
h -t 0.21108 -s 0 -d 1 -p ack -e 40 -c 0 -i 80 -a 0 -x {0.0 1.0 -1 ------- null}
r -t 0.21108 -s 3 -d 2 -p tcp -e 1064 -c 0 -i 48 -a 0 -x {3.0 2.0 11 ------- null}
+ -t 0.21108 -s 2 -d 3 -p ack -e 40 -c 0 -i 81 -a 0 -x {2.0 3.0 11 ------- null}
- -t 0.21108 -s 2 -d 3 -p ack -e 40 -c 0 -i 81 -a 0 -x {2.0 3.0 11 ------- null}
h -t 0.21108 -s 2 -d 3 -p ack -e 40 -c 0 -i 81 -a 0 -x {2.0 3.0 -1 ------- null}
- -t 0.214592 -s 1 -d 0 -p tcp -e 1064 -c 0 -i 52 -a 0 -x {1.0 0.0 13 ------- null}
h -t 0.214592 -s 1 -d 0 -p tcp -e 1064 -c 0 -i 52 -a 0 -x {1.0 0.0 -1 ------- null}
- -t 0.214592 -s 3 -d 2 -p tcp -e 1064 -c 0 -i 54 -a 0 -x {3.0 2.0 13 ------- null}
h -t 0.214592 -s 3 -d 2 -p tcp -e 1064 -c 0 -i 54 -a 0 -x {3.0 2.0 -1 ------- null}
r -t 0.2164 -s 0 -d 1 -p ack -e 40 -c 0 -i 80 -a 0 -x {0.0 1.0 11 ------- null}
+ -t 0.2164 -s 1 -d 0 -p tcp -e 1064 -c 0 -i 82 -a 0 -x {1.0 0.0 23 ------- null}
+ -t 0.2164 -s 1 -d 0 -p tcp -e 1064 -c 0 -i 83 -a 0 -x {1.0 0.0 24 ------- null}
r -t 0.2164 -s 2 -d 3 -p ack -e 40 -c 0 -i 81 -a 0 -x {2.0 3.0 11 ------- null}
+ -t 0.2164 -s 3 -d 2 -p tcp -e 1064 -c 0 -i 84 -a 0 -x {3.0 2.0 23 ------- null}
+ -t 0.2164 -s 3 -d 2 -p tcp -e 1064 -c 0 -i 85 -a 0 -x {3.0 2.0 24 ------- null}
r -t 0.219592 -s 1 -d 0 -p tcp -e 1064 -c 0 -i 47 -a 0 -x {1.0 0.0 12 ------- null}
+ -t 0.219592 -s 0 -d 1 -p ack -e 40 -c 0 -i 86 -a 0 -x {0.0 1.0 12 ------- null}
- -t 0.219592 -s 0 -d 1 -p ack -e 40 -c 0 -i 86 -a 0 -x {0.0 1.0 12 ------- null}
h -t 0.219592 -s 0 -d 1 -p ack -e 40 -c 0 -i 86 -a 0 -x {0.0 1.0 -1 ------- null}
r -t 0.219592 -s 3 -d 2 -p tcp -e 1064 -c 0 -i 49 -a 0 -x {3.0 2.0 12 ------- null}
+ -t 0.219592 -s 2 -d 3 -p ack -e 40 -c 0 -i 87 -a 0 -x {2.0 3.0 12 ------- null}
- -t 0.219592 -s 2 -d 3 -p ack -e 40 -c 0 -i 87 -a 0 -x {2.0 3.0 12 ------- null}
h -t 0.219592 -s 2 -d 3 -p ack -e 40 -c 0 -i 87 -a 0 -x {2.0 3.0 -1 ------- null}
+ -t 0.22058669092161 -s 4 -d 0 -p rtProtoDV -e 5 -c 0 -i 88 -a 0 -x {4.2 0.2 -1 ------- null}
- -t 0.22058669092161 -s 4 -d 0 -p rtProtoDV -e 5 -c 0 -i 88 -a 0 -x {4.2 0.2 -1 ------- null}
h -t 0.22058669092161 -s 4 -d 0 -p rtProtoDV -e 5 -c 0 -i 88 -a 0 -x {4.2 0.2 -1 ------- null}
+ -t 0.22058669092161 -s 4 -d 1 -p rtProtoDV -e 5 -c 0 -i 89 -a 0 -x {4.2 1.2 -1 ------- null}
- -t 0.22058669092161 -s 4 -d 1 -p rtProtoDV -e 5 -c 0 -i 89 -a 0 -x {4.2 1.2 -1 ------- null}
h -t 0.22058669092161 -s 4 -d 1 -p rtProtoDV -e 5 -c 0 -i 89 -a 0 -x {4.2 1.2 -1 ------- null}
+ -t 0.22058669092161 -s 4 -d 2 -p rtProtoDV -e 5 -c 0 -i 90 -a 0 -x {4.2 2.2 -1 ------- null}
- -t 0.22058669092161 -s 4 -d 2 -p rtProtoDV -e 5 -c 0 -i 90 -a 0 -x {4.2 2.2 -1 ------- null}
h -t 0.22058669092161 -s 4 -d 2 -p rtProtoDV -e 5 -c 0 -i 90 -a 0 -x {4.2 2.2 -1 ------- null}
+ -t 0.22058669092161 -s 4 -d 3 -p rtProtoDV -e 5 -c 0 -i 91 -a 0 -x {4.2 3.2 -1 ------- null}
- -t 0.22058669092161 -s 4 -d 3 -p rtProtoDV -e 5 -c 0 -i 91 -a 0 -x {4.2 3.2 -1 ------- null}
h -t 0.22058669092161 -s 4 -d 3 -p rtProtoDV -e 5 -c 0 -i 91 -a 0 -x {4.2 3.2 -1 ------- null}
- -t 0.223104 -s 1 -d 0 -p tcp -e 1064 -c 0 -i 53 -a 0 -x {1.0 0.0 14 ------- null}
h -t 0.223104 -s 1 -d 0 -p tcp -e 1064 -c 0 -i 53 -a 0 -x {1.0 0.0 -1 ------- null}
- -t 0.223104 -s 3 -d 2 -p tcp -e 1064 -c 0 -i 55 -a 0 -x {3.0 2.0 14 ------- null}
h -t 0.223104 -s 3 -d 2 -p tcp -e 1064 -c 0 -i 55 -a 0 -x {3.0 2.0 -1 ------- null}
r -t 0.224912 -s 0 -d 1 -p ack -e 40 -c 0 -i 86 -a 0 -x {0.0 1.0 12 ------- null}
+ -t 0.224912 -s 1 -d 0 -p tcp -e 1064 -c 0 -i 92 -a 0 -x {1.0 0.0 25 ------- null}
+ -t 0.224912 -s 1 -d 0 -p tcp -e 1064 -c 0 -i 93 -a 0 -x {1.0 0.0 26 ------- null}
r -t 0.224912 -s 2 -d 3 -p ack -e 40 -c 0 -i 87 -a 0 -x {2.0 3.0 12 ------- null}
+ -t 0.224912 -s 3 -d 2 -p tcp -e 1064 -c 0 -i 94 -a 0 -x {3.0 2.0 25 ------- null}
+ -t 0.224912 -s 3 -d 2 -p tcp -e 1064 -c 0 -i 95 -a 0 -x {3.0 2.0 26 ------- null}
r -t 0.22562669092161 -s 4 -d 0 -p rtProtoDV -e 5 -c 0 -i 88 -a 0 -x {4.2 0.2 -1 ------- null}
r -t 0.22562669092161 -s 4 -d 1 -p rtProtoDV -e 5 -c 0 -i 89 -a 0 -x {4.2 1.2 -1 ------- null}
r -t 0.22562669092161 -s 4 -d 2 -p rtProtoDV -e 5 -c 0 -i 90 -a 0 -x {4.2 2.2 -1 ------- null}
r -t 0.22562669092161 -s 4 -d 3 -p rtProtoDV -e 5 -c 0 -i 91 -a 0 -x {4.2 3.2 -1 ------- null}
r -t 0.228104 -s 1 -d 0 -p tcp -e 1064 -c 0 -i 52 -a 0 -x {1.0 0.0 13 ------- null}
+ -t 0.228104 -s 0 -d 1 -p ack -e 40 -c 0 -i 96 -a 0 -x {0.0 1.0 13 ------- null}
- -t 0.228104 -s 0 -d 1 -p ack -e 40 -c 0 -i 96 -a 0 -x {0.0 1.0 13 ------- null}
h -t 0.228104 -s 0 -d 1 -p ack -e 40 -c 0 -i 96 -a 0 -x {0.0 1.0 -1 ------- null}
r -t 0.228104 -s 3 -d 2 -p tcp -e 1064 -c 0 -i 54 -a 0 -x {3.0 2.0 13 ------- null}
+ -t 0.228104 -s 2 -d 3 -p ack -e 40 -c 0 -i 97 -a 0 -x {2.0 3.0 13 ------- null}
- -t 0.228104 -s 2 -d 3 -p ack -e 40 -c 0 -i 97 -a 0 -x {2.0 3.0 13 ------- null}
h -t 0.228104 -s 2 -d 3 -p ack -e 40 -c 0 -i 97 -a 0 -x {2.0 3.0 -1 ------- null}
- -t 0.231616 -s 1 -d 0 -p tcp -e 1064 -c 0 -i 58 -a 0 -x {1.0 0.0 15 ------- null}
h -t 0.231616 -s 1 -d 0 -p tcp -e 1064 -c 0 -i 58 -a 0 -x {1.0 0.0 -1 ------- null}
- -t 0.231616 -s 3 -d 2 -p tcp -e 1064 -c 0 -i 60 -a 0 -x {3.0 2.0 15 ------- null}
h -t 0.231616 -s 3 -d 2 -p tcp -e 1064 -c 0 -i 60 -a 0 -x {3.0 2.0 -1 ------- null}
r -t 0.233424 -s 0 -d 1 -p ack -e 40 -c 0 -i 96 -a 0 -x {0.0 1.0 13 ------- null}
+ -t 0.233424 -s 1 -d 0 -p tcp -e 1064 -c 0 -i 98 -a 0 -x {1.0 0.0 27 ------- null}
+ -t 0.233424 -s 1 -d 0 -p tcp -e 1064 -c 0 -i 99 -a 0 -x {1.0 0.0 28 ------- null}
r -t 0.233424 -s 2 -d 3 -p ack -e 40 -c 0 -i 97 -a 0 -x {2.0 3.0 13 ------- null}
+ -t 0.233424 -s 3 -d 2 -p tcp -e 1064 -c 0 -i 100 -a 0 -x {3.0 2.0 27 ------- null}
+ -t 0.233424 -s 3 -d 2 -p tcp -e 1064 -c 0 -i 101 -a 0 -x {3.0 2.0 28 ------- null}
r -t 0.236616 -s 1 -d 0 -p tcp -e 1064 -c 0 -i 53 -a 0 -x {1.0 0.0 14 ------- null}
+ -t 0.236616 -s 0 -d 1 -p ack -e 40 -c 0 -i 102 -a 0 -x {0.0 1.0 14 ------- null}
- -t 0.236616 -s 0 -d 1 -p ack -e 40 -c 0 -i 102 -a 0 -x {0.0 1.0 14 ------- null}
h -t 0.236616 -s 0 -d 1 -p ack -e 40 -c 0 -i 102 -a 0 -x {0.0 1.0 -1 ------- null}
r -t 0.236616 -s 3 -d 2 -p tcp -e 1064 -c 0 -i 55 -a 0 -x {3.0 2.0 14 ------- null}
+ -t 0.236616 -s 2 -d 3 -p ack -e 40 -c 0 -i 103 -a 0 -x {2.0 3.0 14 ------- null}
- -t 0.236616 -s 2 -d 3 -p ack -e 40 -c 0 -i 103 -a 0 -x {2.0 3.0 14 ------- null}
h -t 0.236616 -s 2 -d 3 -p ack -e 40 -c 0 -i 103 -a 0 -x {2.0 3.0 -1 ------- null}
- -t 0.240128 -s 1 -d 0 -p tcp -e 1064 -c 0 -i 59 -a 0 -x {1.0 0.0 16 ------- null}
h -t 0.240128 -s 1 -d 0 -p tcp -e 1064 -c 0 -i 59 -a 0 -x {1.0 0.0 -1 ------- null}
- -t 0.240128 -s 3 -d 2 -p tcp -e 1064 -c 0 -i 61 -a 0 -x {3.0 2.0 16 ------- null}
h -t 0.240128 -s 3 -d 2 -p tcp -e 1064 -c 0 -i 61 -a 0 -x {3.0 2.0 -1 ------- null}
r -t 0.241936 -s 0 -d 1 -p ack -e 40 -c 0 -i 102 -a 0 -x {0.0 1.0 14 ------- null}
+ -t 0.241936 -s 1 -d 0 -p tcp -e 1064 -c 0 -i 104 -a 0 -x {1.0 0.0 29 ------- null}
+ -t 0.241936 -s 1 -d 0 -p tcp -e 1064 -c 0 -i 105 -a 0 -x {1.0 0.0 30 ------- null}