n -t * -s 0  -x 400 -y 250 -Z 0 -z 20  -v circle -c black
n -t * -s 1  -x 0 -y 100 -Z 0 -z 20  -v circle -c black
n -t * -s 2  -x 0 -y 400 -Z 0 -z 20  -v circle -c black
n -t * -s 3  -x 150 -y 250 -Z 0 -z 50  -v circle -c black
n -t * -s 4  -x 200 -y 400 -Z 0 -z 20  -v circle -c black
n -t * -s 5  -x 200 -y 100 -Z 0 -z 20  -v circle -c black
V -t * -v 1.0a5 -a 0
W -t * -x 500 -y 500
A -t * -n 1 -p 0 -o 0x7fffffff -c 30 -a 1
A -t * -h 1 -m 1073741823 -s 0
c -t * -i 1 -n Red
c -t * -i 2 -n Blue
+ -t 1.000000000 -s 0 -d -1 -p tcp -e 40 -c 2 -a 0 -i 0 -k AGT 
- -t 1.000000000 -s 0 -d -1 -p tcp -e 40 -c 2 -a 0 -i 0 -k AGT
h -t 1.000000000 -s 0 -d -1 -p tcp -e 40 -c 2 -a 0 -i 0 -k AGT
+ -t 1.000000000 -s 0 -d -1 -p AODV -e 48 -c 2 -a 0 -i 0 -k RTR 
- -t 1.000000000 -s 0 -d -1 -p AODV -e 48 -c 2 -a 0 -i 0 -k RTR
h -t 1.000000000 -s 0 -d -1 -p AODV -e 48 -c 2 -a 0 -i 0 -k RTR
+ -t 1.000635000 -s 0 -d -1 -p AODV -e 106 -c 2 -a 0 -i 0 -k MAC 
- -t 1.000635000 -s 0 -d -1 -p AODV -e 106 -c 2 -a 0 -i 0 -k MAC
h -t 1.000635000 -s 0 -d -1 -p AODV -e 106 -c 2 -a 0 -i 0 -k MAC
r -t 1.001483833 -s 5 -d -1 -p AODV -e 48 -c 2 -a 0 -i 0 -k MAC
r -t 1.001483833 -s 4 -d -1 -p AODV -e 48 -c 2 -a 0 -i 0 -k MAC
r -t 1.001483833 -s 3 -d -1 -p AODV -e 48 -c 2 -a 0 -i 0 -k MAC
r -t 1.001508833 -s 5 -d -1 -p AODV -e 48 -c 2 -a 0 -i 0 -k RTR
r -t 1.001508833 -s 4 -d -1 -p AODV -e 48 -c 2 -a 0 -i 0 -k RTR
r -t 1.001508833 -s 3 -d -1 -p AODV -e 48 -c 2 -a 0 -i 0 -k RTR
+ -t 1.001508833 -s 3 -d 0 -p AODV -e 44 -c 2 -a 0 -i 0 -k RTR 
- -t 1.001508833 -s 3 -d 0 -p AODV -e 44 -c 2 -a 0 -i 0 -k RTR
h -t 1.001508833 -s 3 -d 0 -p AODV -e 44 -c 2 -a 0 -i 0 -k RTR
+ -t 1.001723833 -s 3 -d -1 -p ARP -e 86 -c 2 -a 0 -i 0 -k MAC 
- -t 1.001723833 -s 3 -d -1 -p ARP -e 86 -c 2 -a 0 -i 0 -k MAC
h -t 1.001723833 -s 3 -d -1 -p ARP -e 86 -c 2 -a 0 -i 0 -k MAC
r -t 1.002412360 -s 4 -d -1 -p ARP -e 28 -c 2 -a 0 -i 0 -k MAC
r -t 1.002412360 -s 5 -d -1 -p ARP -e 28 -c 2 -a 0 -i 0 -k MAC
r -t 1.002412540 -s 2 -d -1 -p ARP -e 28 -c 2 -a 0 -i 0 -k MAC
r -t 1.002412540 -s 1 -d -1 -p ARP -e 28 -c 2 -a 0 -i 0 -k MAC
r -t 1.002412667 -s 0 -d -1 -p ARP -e 28 -c 2 -a 0 -i 0 -k MAC
+ -t 1.002582667 -s 0 -d -1 -p RTS -e 44 -c 2 -a 0 -i 0 -k MAC 
- -t 1.002582667 -s 0 -d -1 -p RTS -e 44 -c 2 -a 0 -i 0 -k MAC
h -t 1.002582667 -s 0 -d -1 -p RTS -e 44 -c 2 -a 0 -i 0 -k MAC
r -t 1.002935500 -s 3 -d -1 -p RTS -e 44 -c 2 -a 0 -i 0 -k MAC
+ -t 1.002945500 -s 3 -d -1 -p CTS -e 38 -c 2 -a 0 -i 0 -k MAC 
- -t 1.002945500 -s 3 -d -1 -p CTS -e 38 -c 2 -a 0 -i 0 -k MAC
h -t 1.002945500 -s 3 -d -1 -p CTS -e 38 -c 2 -a 0 -i 0 -k MAC
r -t 1.003250333 -s 0 -d -1 -p CTS -e 38 -c 2 -a 0 -i 0 -k MAC
+ -t 1.003260333 -s 0 -d -1 -p ARP -e 86 -c 2 -a 0 -i 0 -k MAC 
- -t 1.003260333 -s 0 -d -1 -p ARP -e 86 -c 2 -a 0 -i 0 -k MAC
h -t 1.003260333 -s 0 -d -1 -p ARP -e 86 -c 2 -a 0 -i 0 -k MAC
r -t 1.003949167 -s 3 -d -1 -p ARP -e 28 -c 2 -a 0 -i 0 -k MAC
+ -t 1.003959167 -s 3 -d -1 -p ACK -e 38 -c 2 -a 0 -i 0 -k MAC 
- -t 1.003959167 -s 3 -d -1 -p ACK -e 38 -c 2 -a 0 -i 0 -k MAC
h -t 1.003959167 -s 3 -d -1 -p ACK -e 38 -c 2 -a 0 -i 0 -k MAC
r -t 1.004264000 -s 0 -d -1 -p ACK -e 38 -c 2 -a 0 -i 0 -k MAC
+ -t 1.004393167 -s 3 -d -1 -p RTS -e 44 -c 2 -a 0 -i 0 -k MAC 
- -t 1.004393167 -s 3 -d -1 -p RTS -e 44 -c 2 -a 0 -i 0 -k MAC
h -t 1.004393167 -s 3 -d -1 -p RTS -e 44 -c 2 -a 0 -i 0 -k MAC
r -t 1.004746000 -s 0 -d -1 -p RTS -e 44 -c 2 -a 0 -i 0 -k MAC
+ -t 1.004756000 -s 0 -d -1 -p CTS -e 38 -c 2 -a 0 -i 0 -k MAC 
- -t 1.004756000 -s 0 -d -1 -p CTS -e 38 -c 2 -a 0 -i 0 -k MAC
h -t 1.004756000 -s 0 -d -1 -p CTS -e 38 -c 2 -a 0 -i 0 -k MAC
r -t 1.005060833 -s 3 -d -1 -p CTS -e 38 -c 2 -a 0 -i 0 -k MAC
+ -t 1.005070833 -s 3 -d 0 -p AODV -e 102 -c 2 -a 0 -i 0 -k MAC 
- -t 1.005070833 -s 3 -d 0 -p AODV -e 102 -c 2 -a 0 -i 0 -k MAC
h -t 1.005070833 -s 3 -d 0 -p AODV -e 102 -c 2 -a 0 -i 0 -k MAC
r -t 1.005887667 -s 0 -d 0 -p AODV -e 44 -c 2 -a 0 -i 0 -k MAC
+ -t 1.005897667 -s 0 -d -1 -p ACK -e 38 -c 2 -a 0 -i 0 -k MAC 
- -t 1.005897667 -s 0 -d -1 -p ACK -e 38 -c 2 -a 0 -i 0 -k MAC
h -t 1.005897667 -s 0 -d -1 -p ACK -e 38 -c 2 -a 0 -i 0 -k MAC
+ -t 1.005912667 -s 0 -d 3 -p tcp -e 40 -c 2 -a 0 -i 0 -k RTR 
- -t 1.005912667 -s 0 -d 3 -p tcp -e 40 -c 2 -a 0 -i 0 -k RTR
h -t 1.005912667 -s 0 -d 3 -p tcp -e 40 -c 2 -a 0 -i 0 -k RTR
+ -t 1.005920567 -s 5 -d -1 -p AODV -e 48 -c 2 -a 0 -i 0 -k RTR 
- -t 1.005920567 -s 5 -d -1 -p AODV -e 48 -c 2 -a 0 -i 0 -k RTR
h -t 1.005920567 -s 5 -d -1 -p AODV -e 48 -c 2 -a 0 -i 0 -k RTR
r -t 1.006202500 -s 3 -d -1 -p ACK -e 38 -c 2 -a 0 -i 0 -k MAC
+ -t 1.006431667 -s 0 -d -1 -p RTS -e 44 -c 2 -a 0 -i 0 -k MAC 
- -t 1.006431667 -s 0 -d -1 -p RTS -e 44 -c 2 -a 0 -i 0 -k MAC
h -t 1.006431667 -s 0 -d -1 -p RTS -e 44 -c 2 -a 0 -i 0 -k MAC
r -t 1.006784500 -s 3 -d -1 -p RTS -e 44 -c 2 -a 0 -i 0 -k MAC
+ -t 1.006794500 -s 3 -d -1 -p CTS -e 38 -c 2 -a 0 -i 0 -k MAC 
- -t 1.006794500 -s 3 -d -1 -p CTS -e 38 -c 2 -a 0 -i 0 -k MAC
h -t 1.006794500 -s 3 -d -1 -p CTS -e 38 -c 2 -a 0 -i 0 -k MAC
r -t 1.007099333 -s 0 -d -1 -p CTS -e 38 -c 2 -a 0 -i 0 -k MAC
+ -t 1.007109333 -s 0 -d 3 -p tcp -e 98 -c 2 -a 0 -i 0 -k MAC 
- -t 1.007109333 -s 0 -d 3 -p tcp -e 98 -c 2 -a 0 -i 0 -k MAC
h -t 1.007109333 -s 0 -d 3 -p tcp -e 98 -c 2 -a 0 -i 0 -k MAC
r -t 1.007894167 -s 3 -d 3 -p tcp -e 40 -c 2 -a 0 -i 0 -k MAC
+ -t 1.007904167 -s 3 -d -1 -p ACK -e 38 -c 2 -a 0 -i 0 -k MAC 
- -t 1.007904167 -s 3 -d -1 -p ACK -e 38 -c 2 -a 0 -i 0 -k MAC
h -t 1.007904167 -s 3 -d -1 -p ACK -e 38 -c 2 -a 0 -i 0 -k MAC
r -t 1.007919167 -s 3 -d 3 -p tcp -e 40 -c 2 -a 0 -i 0 -k AGT
+ -t 1.007919167 -s 3 -d -1 -p ack -e 40 -c 2 -a 0 -i 1 -k AGT 
- -t 1.007919167 -s 3 -d -1 -p ack -e 40 -c 2 -a 0 -i 1 -k AGT
h -t 1.007919167 -s 3 -d -1 -p ack -e 40 -c 2 -a 0 -i 1 -k AGT
+ -t 1.007919167 -s 3 -d 0 -p ack -e 40 -c 2 -a 0 -i 1 -k RTR 
- -t 1.007919167 -s 3 -d 0 -p ack -e 40 -c 2 -a 0 -i 1 -k RTR
h -t 1.007919167 -s 3 -d 0 -p ack -e 40 -c 2 -a 0 -i 1 -k RTR
r -t 1.008209000 -s 0 -d -1 -p ACK -e 38 -c 2 -a 0 -i 0 -k MAC
+ -t 1.008358167 -s 3 -d -1 -p RTS -e 44 -c 2 -a 0 -i 0 -k MAC 
- -t 1.008358167 -s 3 -d -1 -p RTS -e 44 -c 2 -a 0 -i 0 -k MAC
h -t 1.008358167 -s 3 -d -1 -p RTS -e 44 -c 2 -a 0 -i 0 -k MAC
r -t 1.008711000 -s 0 -d -1 -p RTS -e 44 -c 2 -a 0 -i 0 -k MAC
+ -t 1.008721000 -s 0 -d -1 -p CTS -e 38 -c 2 -a 0 -i 0 -k MAC 
- -t 1.008721000 -s 0 -d -1 -p CTS -e 38 -c 2 -a 0 -i 0 -k MAC
h -t 1.008721000 -s 0 -d -1 -p CTS -e 38 -c 2 -a 0 -i 0 -k MAC
r -t 1.009025833 -s 3 -d -1 -p CTS -e 38 -c 2 -a 0 -i 0 -k MAC
+ -t 1.009035833 -s 3 -d 0 -p ack -e 98 -c 2 -a 0 -i 1 -k MAC 
- -t 1.009035833 -s 3 -d 0 -p ack -e 98 -c 2 -a 0 -i 1 -k MAC
h -t 1.009035833 -s 3 -d 0 -p ack -e 98 -c 2 -a 0 -i 1 -k MAC
+ -t 1.009500388 -s 4 -d -1 -p AODV -e 48 -c 2 -a 0 -i 0 -k RTR 
- -t 1.009500388 -s 4 -d -1 -p AODV -e 48 -c 2 -a 0 -i 0 -k RTR
h -t 1.009500388 -s 4 -d -1 -p AODV -e 48 -c 2 -a 0 -i 0 -k RTR
r -t 1.009820667 -s 0 -d 0 -p ack -e 40 -c 2 -a 0 -i 1 -k MAC
+ -t 1.009830667 -s 0 -d -1 -p ACK -e 38 -c 2 -a 0 -i 0 -k MAC 
- -t 1.009830667 -s 0 -d -1 -p ACK -e 38 -c 2 -a 0 -i 0 -k MAC
h -t 1.009830667 -s 0 -d -1 -p ACK -e 38 -c 2 -a 0 -i 0 -k MAC
r -t 1.009845667 -s 0 -d 0 -p ack -e 40 -c 2 -a 0 -i 1 -k AGT
+ -t 1.009845667 -s 0 -d -1 -p tcp -e 1040 -c 2 -a 0 -i 2 -k AGT 
- -t 1.009845667 -s 0 -d -1 -p tcp -e 1040 -c 2 -a 0 -i 2 -k AGT
h -t 1.009845667 -s 0 -d -1 -p tcp -e 1040 -c 2 -a 0 -i 2 -k AGT
+ -t 1.009845667 -s 0 -d -1 -p tcp -e 1040 -c 2 -a 0 -i 3 -k AGT 
- -t 1.009845667 -s 0 -d -1 -p tcp -e 1040 -c 2 -a 0 -i 3 -k AGT
h -t 1.009845667 -s 0 -d -1 -p tcp -e 1040 -c 2 -a 0 -i 3 -k AGT
+ -t 1.009845667 -s 0 -d 3 -p tcp -e 1040 -c 2 -a 0 -i 2 -k RTR 
- -t 1.009845667 -s 0 -d 3 -p tcp -e 1040 -c 2 -a 0 -i 2 -k RTR
h -t 1.009845667 -s 0 -d 3 -p tcp -e 1040 -c 2 -a 0 -i 2 -k RTR
+ -t 1.009845667 -s 0 -d 3 -p tcp -e 1040 -c 2 -a 0 -i 3 -k RTR 
- -t 1.009845667 -s 0 -d 3 -p tcp -e 1040 -c 2 -a 0 -i 3 -k RTR
h -t 1.009845667 -s 0 -d 3 -p tcp -e 1040 -c 2 -a 0 -i 3 -k RTR
r -t 1.010135500 -s 3 -d -1 -p ACK -e 38 -c 2 -a 0 -i 0 -k MAC
+ -t 1.010225500 -s 4 -d -1 -p AODV -e 106 -c 2 -a 0 -i 0 -k MAC 
- -t 1.010225500 -s 4 -d -1 -p AODV -e 106 -c 2 -a 0 -i 0 -k MAC
h -t 1.010225500 -s 4 -d -1 -p AODV -e 106 -c 2 -a 0 -i 0 -k MAC
r -t 1.011074027 -s 3 -d -1 -p AODV -e 48 -c 2 -a 0 -i 0 -k MAC
r -t 1.011074167 -s 2 -d -1 -p AODV -e 48 -c 2 -a 0 -i 0 -k MAC
r -t 1.011074333 -s 0 -d -1 -p AODV -e 48 -c 2 -a 0 -i 0 -k MAC
r -t 1.011099027 -s 3 -d -1 -p AODV -e 48 -c 2 -a 0 -i 0 -k RTR
r -t 1.011099167 -s 2 -d -1 -p AODV -e 48 -c 2 -a 0 -i 0 -k RTR
r -t 1.011099333 -s 0 -d -1 -p AODV -e 48 -c 2 -a 0 -i 0 -k RTR
+ -t 1.011244333 -s 0 -d -1 -p RTS -e 44 -c 2 -a 0 -i 0 -k MAC 
- -t 1.011244333 -s 0 -d -1 -p RTS -e 44 -c 2 -a 0 -i 0 -k MAC
h -t 1.011244333 -s 0 -d -1 -p RTS -e 44 -c 2 -a 0 -i 0 -k MAC
r -t 1.011597167 -s 3 -d -1 -p RTS -e 44 -c 2 -a 0 -i 0 -k MAC
+ -t 1.011607167 -s 3 -d -1 -p CTS -e 38 -c 2 -a 0 -i 0 -k MAC 
- -t 1.011607167 -s 3 -d -1 -p CTS -e 38 -c 2 -a 0 -i 0 -k MAC
h -t 1.011607167 -s 3 -d -1 -p CTS -e 38 -c 2 -a 0 -i 0 -k MAC
r -t 1.011912000 -s 0 -d -1 -p CTS -e 38 -c 2 -a 0 -i 0 -k MAC
+ -t 1.011922000 -s 0 -d 3 -p tcp -e 1098 -c 2 -a 0 -i 2 -k MAC 
- -t 1.011922000 -s 0 -d 3 -p tcp -e 1098 -c 2 -a 0 -i 2 -k MAC
h -t 1.011922000 -s 0 -d 3 -p tcp -e 1098 -c 2 -a 0 -i 2 -k MAC
+ -t 1.012237249 -s 2 -d -1 -p AODV -e 48 -c 2 -a 0 -i 0 -k RTR 
- -t 1.012237249 -s 2 -d -1 -p AODV -e 48 -c 2 -a 0 -i 0 -k RTR
h -t 1.012237249 -s 2 -d -1 -p AODV -e 48 -c 2 -a 0 -i 0 -k RTR
r -t 1.020706833 -s 3 -d 3 -p tcp -e 1040 -c 2 -a 0 -i 2 -k MAC
+ -t 1.020716833 -s 3 -d -1 -p ACK -e 38 -c 2 -a 0 -i 0 -k MAC 
- -t 1.020716833 -s 3 -d -1 -p ACK -e 38 -c 2 -a 0 -i 0 -k MAC
h -t 1.020716833 -s 3 -d -1 -p ACK -e 38 -c 2 -a 0 -i 0 -k MAC
r -t 1.020731833 -s 3 -d 3 -p tcp -e 1040 -c 2 -a 0 -i 2 -k AGT
+ -t 1.020731833 -s 3 -d -1 -p ack -e 40 -c 2 -a 0 -i 4 -k AGT 
- -t 1.020731833 -s 3 -d -1 -p ack -e 40 -c 2 -a 0 -i 4 -k AGT
h -t 1.020731833 -s 3 -d -1 -p ack -e 40 -c 2 -a 0 -i 4 -k AGT
+ -t 1.020731833 -s 3 -d 0 -p ack -e 40 -c 2 -a 0 -i 4 -k RTR 
- -t 1.020731833 -s 3 -d 0 -p ack -e 40 -c 2 -a 0 -i 4 -k RTR
h -t 1.020731833 -s 3 -d 0 -p ack -e 40 -c 2 -a 0 -i 4 -k RTR
r -t 1.021021667 -s 0 -d -1 -p ACK -e 38 -c 2 -a 0 -i 0 -k MAC
+ -t 1.021151360 -s 5 -d -1 -p AODV -e 106 -c 2 -a 0 -i 0 -k MAC 
- -t 1.021151360 -s 5 -d -1 -p AODV -e 106 -c 2 -a 0 -i 0 -k MAC
h -t 1.021151360 -s 5 -d -1 -p AODV -e 106 -c 2 -a 0 -i 0 -k MAC
r -t 1.021999887 -s 3 -d -1 -p AODV -e 48 -c 2 -a 0 -i 0 -k MAC
r -t 1.022000027 -s 1 -d -1 -p AODV -e 48 -c 2 -a 0 -i 0 -k MAC
r -t 1.022000194 -s 0 -d -1 -p AODV -e 48 -c 2 -a 0 -i 0 -k MAC
r -t 1.022024887 -s 3 -d -1 -p AODV -e 48 -c 2 -a 0 -i 0 -k RTR
r -t 1.022025027 -s 1 -d -1 -p AODV -e 48 -c 2 -a 0 -i 0 -k RTR
r -t 1.022025194 -s 0 -d -1 -p AODV -e 48 -c 2 -a 0 -i 0 -k RTR
+ -t 1.022130194 -s 0 -d -1 -p RTS -e 44 -c 2 -a 0 -i 0 -k MAC 
- -t 1.022130194 -s 0 -d -1 -p RTS -e 44 -c 2 -a 0 -i 0 -k MAC
h -t 1.022130194 -s 0 -d -1 -p RTS -e 44 -c 2 -a 0 -i 0 -k MAC
r -t 1.022483027 -s 3 -d -1 -p RTS -e 44 -c 2 -a 0 -i 0 -k MAC
+ -t 1.022493027 -s 3 -d -1 -p CTS -e 38 -c 2 -a 0 -i 0 -k MAC 
- -t 1.022493027 -s 3 -d -1 -p CTS -e 38 -c 2 -a 0 -i 0 -k MAC
h -t 1.022493027 -s 3 -d -1 -p CTS -e 38 -c 2 -a 0 -i 0 -k MAC
r -t 1.022797860 -s 0 -d -1 -p CTS -e 38 -c 2 -a 0 -i 0 -k MAC
+ -t 1.022807860 -s 0 -d 3 -p tcp -e 1098 -c 2 -a 0 -i 3 -k MAC 
- -t 1.022807860 -s 0 -d 3 -p tcp -e 1098 -c 2 -a 0 -i 3 -k MAC
h -t 1.022807860 -s 0 -d 3 -p tcp -e 1098 -c 2 -a 0 -i 3 -k MAC
+ -t 1.022966416 -s 1 -d -1 -p AODV -e 48 -c 2 -a 0 -i 0 -k RTR 
- -t 1.022966416 -s 1 -d -1 -p AODV -e 48 -c 2 -a 0 -i 0 -k RTR
h -t 1.022966416 -s 1 -d -1 -p AODV -e 48 -c 2 -a 0 -i 0 -k RTR
r -t 1.031592694 -s 3 -d 3 -p tcp -e 1040 -c 2 -a 0 -i 3 -k MAC
+ -t 1.031602694 -s 3 -d -1 -p ACK -e 38 -c 2 -a 0 -i 0 -k MAC 
- -t 1.031602694 -s 3 -d -1 -p ACK -e 38 -c 2 -a 0 -i 0 -k MAC
h -t 1.031602694 -s 3 -d -1 -p ACK -e 38 -c 2 -a 0 -i 0 -k MAC
r -t 1.031617694 -s 3 -d 3 -p tcp -e 1040 -c 2 -a 0 -i 3 -k AGT
+ -t 1.031617694 -s 3 -d -1 -p ack -e 40 -c 2 -a 0 -i 5 -k AGT 
- -t 1.031617694 -s 3 -d -1 -p ack -e 40 -c 2 -a 0 -i 5 -k AGT
h -t 1.031617694 -s 3 -d -1 -p ack -e 40 -c 2 -a 0 -i 5 -k AGT
+ -t 1.031617694 -s 3 -d 0 -p ack -e 40 -c 2 -a 0 -i 5 -k RTR 
- -t 1.031617694 -s 3 -d 0 -p ack -e 40 -c 2 -a 0 -i 5 -k RTR
h -t 1.031617694 -s 3 -d 0 -p ack -e 40 -c 2 -a 0 -i 5 -k RTR
r -t 1.031907527 -s 0 -d -1 -p ACK -e 38 -c 2 -a 0 -i 0 -k MAC
+ -t 1.032176694 -s 3 -d -1 -p RTS -e 44 -c 2 -a 0 -i 0 -k MAC 
- -t 1.032176694 -s 3 -d -1 -p RTS -e 44 -c 2 -a 0 -i 0 -k MAC
h -t 1.032176694 -s 3 -d -1 -p RTS -e 44 -c 2 -a 0 -i 0 -k MAC
r -t 1.032529527 -s 0 -d -1 -p RTS -e 44 -c 2 -a 0 -i 0 -k MAC
+ -t 1.032539527 -s 0 -d -1 -p CTS -e 38 -c 2 -a 0 -i 0 -k MAC 
- -t 1.032539527 -s 0 -d -1 -p CTS -e 38 -c 2 -a 0 -i 0 -k MAC
h -t 1.032539527 -s 0 -d -1 -p CTS -e 38 -c 2 -a 0 -i 0 -k MAC
r -t 1.032844360 -s 3 -d -1 -p CTS -e 38 -c 2 -a 0 -i 0 -k MAC
+ -t 1.032854360 -s 3 -d 0 -p ack -e 98 -c 2 -a 0 -i 4 -k MAC 
- -t 1.032854360 -s 3 -d 0 -p ack -e 98 -c 2 -a 0 -i 4 -k MAC
h -t 1.032854360 -s 3 -d 0 -p ack -e 98 -c 2 -a 0 -i 4 -k MAC
r -t 1.033639194 -s 0 -d 0 -p ack -e 40 -c 2 -a 0 -i 4 -k MAC
+ -t 1.033649194 -s 0 -d -1 -p ACK -e 38 -c 2 -a 0 -i 0 -k MAC 
- -t 1.033649194 -s 0 -d -1 -p ACK -e 38 -c 2 -a 0 -i 0 -k MAC
h -t 1.033649194 -s 0 -d -1 -p ACK -e 38 -c 2 -a 0 -i 0 -k MAC
r -t 1.033664194 -s 0 -d 0 -p ack -e 40 -c 2 -a 0 -i 4 -k AGT
+ -t 1.033664194 -s 0 -d -1 -p tcp -e 1040 -c 2 -a 0 -i 6 -k AGT 
- -t 1.033664194 -s 0 -d -1 -p tcp -e 1040 -c 2 -a 0 -i 6 -k AGT
h -t 1.033664194 -s 0 -d -1 -p tcp -e 1040 -c 2 -a 0 -i 6 -k AGT
+ -t 1.033664194 -s 0 -d -1 -p tcp -e 1040 -c 2 -a 0 -i 7 -k AGT 
- -t 1.033664194 -s 0 -d -1 -p tcp -e 1040 -c 2 -a 0 -i 7 -k AGT
h -t 1.033664194 -s 0 -d -1 -p tcp -e 1040 -c 2 -a 0 -i 7 -k AGT
+ -t 1.033664194 -s 0 -d 3 -p tcp -e 1040 -c 2 -a 0 -i 6 -k RTR 
- -t 1.033664194 -s 0 -d 3 -p tcp -e 1040 -c 2 -a 0 -i 6 -k RTR
h -t 1.033664194 -s 0 -d 3 -p tcp -e 1040 -c 2 -a 0 -i 6 -k RTR
+ -t 1.033664194 -s 0 -d 3 -p tcp -e 1040 -c 2 -a 0 -i 7 -k RTR 
- -t 1.033664194 -s 0 -d 3 -p tcp -e 1040 -c 2 -a 0 -i 7 -k RTR
h -t 1.033664194 -s 0 -d 3 -p tcp -e 1040 -c 2 -a 0 -i 7 -k RTR
r -t 1.033954027 -s 3 -d -1 -p ACK -e 38 -c 2 -a 0 -i 0 -k MAC
+ -t 1.034024027 -s 3 -d -1 -p RTS -e 44 -c 2 -a 0 -i 0 -k MAC 
- -t 1.034024027 -s 3 -d -1 -p RTS -e 44 -c 2 -a 0 -i 0 -k MAC
h -t 1.034024027 -s 3 -d -1 -p RTS -e 44 -c 2 -a 0 -i 0 -k MAC
r -t 1.034376860 -s 0 -d -1 -p RTS -e 44 -c 2 -a 0 -i 0 -k MAC
+ -t 1.034386860 -s 0 -d -1 -p CTS -e 38 -c 2 -a 0 -i 0 -k MAC 
- -t 1.034386860 -s 0 -d -1 -p CTS -e 38 -c 2 -a 0 -i 0 -k MAC
h -t 1.034386860 -s 0 -d -1 -p CTS -e 38 -c 2 -a 0 -i 0 -k MAC
r -t 1.034691694 -s 3 -d -1 -p CTS -e 38 -c 2 -a 0 -i 0 -k MAC
+ -t 1.034701694 -s 3 -d 0 -p ack -e 98 -c 2 -a 0 -i 5 -k MAC 
- -t 1.034701694 -s 3 -d 0 -p ack -e 98 -c 2 -a 0 -i 5 -k MAC
h -t 1.034701694 -s 3 -d 0 -p ack -e 98 -c 2 -a 0 -i 5 -k MAC
r -t 1.035486527 -s 0 -d 0 -p ack -e 40 -c 2 -a 0 -i 5 -k MAC
+ -t 1.035496527 -s 0 -d -1 -p ACK -e 38 -c 2 -a 0 -i 0 -k MAC 
- -t 1.035496527 -s 0 -d -1 -p ACK -e 38 -c 2 -a 0 -i 0 -k MAC
h -t 1.035496527 -s 0 -d -1 -p ACK -e 38 -c 2 -a 0 -i 0 -k MAC
r -t 1.035511527 -s 0 -d 0 -p ack -e 40 -c 2 -a 0 -i 5 -k AGT
+ -t 1.035511527 -s 0 -d -1 -p tcp -e 1040 -c 2 -a 0 -i 8 -k AGT 
- -t 1.035511527 -s 0 -d -1 -p tcp -e 1040 -c 2 -a 0 -i 8 -k AGT
h -t 1.035511527 -s 0 -d -1 -p tcp -e 1040 -c 2 -a 0 -i 8 -k AGT
+ -t 1.035511527 -s 0 -d -1 -p tcp -e 1040 -c 2 -a 0 -i 9 -k AGT 
- -t 1.035511527 -s 0 -d -1 -p tcp -e 1040 -c 2 -a 0 -i 9 -k AGT
h -t 1.035511527 -s 0 -d -1 -p tcp -e 1040 -c 2 -a 0 -i 9 -k AGT
+ -t 1.035511527 -s 0 -d 3 -p tcp -e 1040 -c 2 -a 0 -i 8 -k RTR 
- -t 1.035511527 -s 0 -d 3 -p tcp -e 1040 -c 2 -a 0 -i 8 -k RTR
h -t 1.035511527 -s 0 -d 3 -p tcp -e 1040 -c 2 -a 0 -i 8 -k RTR
+ -t 1.035511527 -s 0 -d 3 -p tcp -e 1040 -c 2 -a 0 -i 9 -k RTR 
- -t 1.035511527 -s 0 -d 3 -p tcp -e 1040 -c 2 -a 0 -i 9 -k RTR
h -t 1.035511527 -s 0 -d 3 -p tcp -e 1040 -c 2 -a 0 -i 9 -k RTR
r -t 1.035801360 -s 3 -d -1 -p ACK -e 38 -c 2 -a 0 -i 0 -k MAC
+ -t 1.036050527 -s 0 -d -1 -p RTS -e 44 -c 2 -a 0 -i 0 -k MAC 
- -t 1.036050527 -s 0 -d -1 -p RTS -e 44 -c 2 -a 0 -i 0 -k MAC
h -t 1.036050527 -s 0 -d -1 -p RTS -e 44 -c 2 -a 0 -i 0 -k MAC
r -t 1.036403360 -s 3 -d -1 -p RTS -e 44 -c 2 -a 0 -i 0 -k MAC
+ -t 1.036413360 -s 3 -d -1 -p CTS -e 38 -c 2 -a 0 -i 0 -k MAC 
- -t 1.036413360 -s 3 -d -1 -p CTS -e 38 -c 2 -a 0 -i 0 -k MAC
h -t 1.036413360 -s 3 -d -1 -p CTS -e 38 -c 2 -a 0 -i 0 -k MAC
r -t 1.036718194 -s 0 -d -1 -p CTS -e 38 -c 2 -a 0 -i 0 -k MAC
+ -t 1.036728194 -s 0 -d 3 -p tcp -e 1098 -c 2 -a 0 -i 6 -k MAC 
- -t 1.036728194 -s 0 -d 3 -p tcp -e 1098 -c 2 -a 0 -i 6 -k MAC
h -t 1.036728194 -s 0 -d 3 -p tcp -e 1098 -c 2 -a 0 -i 6 -k MAC
r -t 1.045513027 -s 3 -d 3 -p tcp -e 1040 -c 2 -a 0 -i 6 -k MAC
+ -t 1.045523027 -s 3 -d -1 -p ACK -e 38 -c 2 -a 0 -i 0 -k MAC 
- -t 1.045523027 -s 3 -d -1 -p ACK -e 38 -c 2 -a 0 -i 0 -k MAC
h -t 1.045523027 -s 3 -d -1 -p ACK -e 38 -c 2 -a 0 -i 0 -k MAC
r -t 1.045538027 -s 3 -d 3 -p tcp -e 1040 -c 2 -a 0 -i 6 -k AGT
+ -t 1.045538027 -s 3 -d -1 -p ack -e 40 -c 2 -a 0 -i 10 -k AGT 
- -t 1.045538027 -s 3 -d -1 -p ack -e 40 -c 2 -a 0 -i 10 -k AGT
h -t 1.045538027 -s 3 -d -1 -p ack -e 40 -c 2 -a 0 -i 10 -k AGT
+ -t 1.045538027 -s 3 -d 0 -p ack -e 40 -c 2 -a 0 -i 10 -k RTR 
- -t 1.045538027 -s 3 -d 0 -p ack -e 40 -c 2 -a 0 -i 10 -k RTR
h -t 1.045538027 -s 3 -d 0 -p ack -e 40 -c 2 -a 0 -i 10 -k RTR
r -t 1.045827860 -s 0 -d -1 -p ACK -e 38 -c 2 -a 0 -i 0 -k MAC
+ -t 1.045937027 -s 3 -d -1 -p RTS -e 44 -c 2 -a 0 -i 0 -k MAC 
- -t 1.045937027 -s 3 -d -1 -p RTS -e 44 -c 2 -a 0 -i 0 -k MAC
h -t 1.045937027 -s 3 -d -1 -p RTS -e 44 -c 2 -a 0 -i 0 -k MAC
r -t 1.046289860 -s 0 -d -1 -p RTS -e 44 -c 2 -a 0 -i 0 -k MAC
+ -t 1.046299860 -s 0 -d -1 -p CTS -e 38 -c 2 -a 0 -i 0 -k MAC 
- -t 1.046299860 -s 0 -d -1 -p CTS -e 38 -c 2 -a 0 -i 0 -k MAC
h -t 1.046299860 -s 0 -d -1 -p CTS -e 38 -c 2 -a 0 -i 0 -k MAC
r -t 1.046604694 -s 3 -d -1 -p CTS -e 38 -c 2 -a 0 -i 0 -k MAC
+ -t 1.046614694 -s 3 -d 0 -p ack -e 98 -c 2 -a 0 -i 10 -k MAC 
- -t 1.046614694 -s 3 -d 0 -p ack -e 98 -c 2 -a 0 -i 10 -k MAC
h -t 1.046614694 -s 3 -d 0 -p ack -e 98 -c 2 -a 0 -i 10 -k MAC
r -t 1.047399527 -s 0 -d 0 -p ack -e 40 -c 2 -a 0 -i 10 -k MAC
+ -t 1.047409527 -s 0 -d -1 -p ACK -e 38 -c 2 -a 0 -i 0 -k MAC 
- -t 1.047409527 -s 0 -d -1 -p ACK -e 38 -c 2 -a 0 -i 0 -k MAC
h -t 1.047409527 -s 0 -d -1 -p ACK -e 38 -c 2 -a 0 -i 0 -k MAC
r -t 1.047424527 -s 0 -d 0 -p ack -e 40 -c 2 -a 0 -i 10 -k AGT
+ -t 1.047424527 -s 0 -d -1 -p tcp -e 1040 -c 2 -a 0 -i 11 -k AGT 
- -t 1.047424527 -s 0 -d -1 -p tcp -e 1040 -c 2 -a 0 -i 11 -k AGT
h -t 1.047424527 -s 0 -d -1 -p tcp -e 1040 -c 2 -a 0 -i 11 -k AGT
+ -t 1.047424527 -s 0 -d -1 -p tcp -e 1040 -c 2 -a 0 -i 12 -k AGT 
- -t 1.047424527 -s 0 -d -1 -p tcp -e 1040 -c 2 -a 0 -i 12 -k AGT
h -t 1.047424527 -s 0 -d -1 -p tcp -e 1040 -c 2 -a 0 -i 12 -k AGT
+ -t 1.047424527 -s 0 -d 3 -p tcp -e 1040 -c 2 -a 0 -i 11 -k RTR 
- -t 1.047424527 -s 0 -d 3 -p tcp -e 1040 -c 2 -a 0 -i 11 -k RTR
h -t 1.047424527 -s 0 -d 3 -p tcp -e 1040 -c 2 -a 0 -i 11 -k RTR
+ -t 1.047424527 -s 0 -d 3 -p tcp -e 1040 -c 2 -a 0 -i 12 -k RTR 
- -t 1.047424527 -s 0 -d 3 -p tcp -e 1040 -c 2 -a 0 -i 12 -k RTR
h -t 1.047424527 -s 0 -d 3 -p tcp -e 1040 -c 2 -a 0 -i 12 -k RTR
r -t 1.047714360 -s 3 -d -1 -p ACK -e 38 -c 2 -a 0 -i 0 -k MAC
+ -t 1.048163527 -s 0 -d -1 -p RTS -e 44 -c 2 -a 0 -i 0 -k MAC 
- -t 1.048163527 -s 0 -d -1 -p RTS -e 44 -c 2 -a 0 -i 0 -k MAC
h -t 1.048163527 -s 0 -d -1 -p RTS -e 44 -c 2 -a 0 -i 0 -k MAC
r -t 1.048516360 -s 3 -d -1 -p RTS -e 44 -c 2 -a 0 -i 0 -k MAC
+ -t 1.048526360 -s 3 -d -1 -p CTS -e 38 -c 2 -a 0 -i 0 -k MAC 
- -t 1.048526360 -s 3 -d -1 -p CTS -e 38 -c 2 -a 0 -i 0 -k MAC
h -t 1.048526360 -s 3 -d -1 -p CTS -e 38 -c 2 -a 0 -i 0 -k MAC
r -t 1.048831194 -s 0 -d -1 -p CTS -e 38 -c 2 -a 0 -i 0 -k MAC
+ -t 1.048841194 -s 0 -d 3 -p tcp -e 1098 -c 2 -a 0 -i 7 -k MAC 
- -t 1.048841194 -s 0 -d 3 -p tcp -e 1098 -c 2 -a 0 -i 7 -k MAC
h -t 1.048841194 -s 0 -d 3 -p tcp -e 1098 -c 2 -a 0 -i 7 -k MAC
r -t 1.057626027 -s 3 -d 3 -p tcp -e 1040 -c 2 -a 0 -i 7 -k MAC
+ -t 1.057636027 -s 3 -d -1 -p ACK -e 38 -c 2 -a 0 -i 0 -k MAC 
- -t 1.057636027 -s 3 -d -1 -p ACK -e 38 -c 2 -a 0 -i 0 -k MAC
h -t 1.057636027 -s 3 -d -1 -p ACK -e 38 -c 2 -a 0 -i 0 -k MAC
r -t 1.057651027 -s 3 -d 3 -p tcp -e 1040 -c 2 -a 0 -i 7 -k AGT
+ -t 1.057651027 -s 3 -d -1 -p ack -e 40 -c 2 -a 0 -i 13 -k AGT 
- -t 1.057651027 -s 3 -d -1 -p ack -e 40 -c 2 -a 0 -i 13 -k AGT
h -t 1.057651027 -s 3 -d -1 -p ack -e 40 -c 2 -a 0 -i 13 -k AGT
+ -t 1.057651027 -s 3 -d 0 -p ack -e 40 -c 2 -a 0 -i 13 -k RTR 
- -t 1.057651027 -s 3 -d 0 -p ack -e 40 -c 2 -a 0 -i 13 -k RTR
h -t 1.057651027 -s 3 -d 0 -p ack -e 40 -c 2 -a 0 -i 13 -k RTR
r -t 1.057940860 -s 0 -d -1 -p ACK -e 38 -c 2 -a 0 -i 0 -k MAC
+ -t 1.058080618 -s 2 -d -1 -p AODV -e 106 -c 2 -a 0 -i 0 -k MAC 
- -t 1.058080618 -s 2 -d -1 -p AODV -e 106 -c 2 -a 0 -i 0 -k MAC
h -t 1.058080618 -s 2 -d -1 -p AODV -e 106 -c 2 -a 0 -i 0 -k MAC
r -t 1.058929284 -s 4 -d -1 -p AODV -e 48 -c 2 -a 0 -i 0 -k MAC
r -t 1.058929325 -s 3 -d -1 -p AODV -e 48 -c 2 -a 0 -i 0 -k MAC
r -t 1.058954284 -s 4 -d -1 -p AODV -e 48 -c 2 -a 0 -i 0 -k RTR
r -t 1.058954325 -s 3 -d -1 -p AODV -e 48 -c 2 -a 0 -i 0 -k RTR
+ -t 1.059443618 -s 1 -d -1 -p AODV -e 106 -c 2 -a 0 -i 0 -k MAC 
- -t 1.059443618 -s 1 -d -1 -p AODV -e 106 -c 2 -a 0 -i 0 -k MAC
h -t 1.059443618 -s 1 -d -1 -p AODV -e 106 -c 2 -a 0 -i 0 -k MAC
r -t 1.060292284 -s 5 -d -1 -p AODV -e 48 -c 2 -a 0 -i 0 -k MAC
r -t 1.060292325 -s 3 -d -1 -p AODV -e 48 -c 2 -a 0 -i 0 -k MAC
r -t 1.060317284 -s 5 -d -1 -p AODV -e 48 -c 2 -a 0 -i 0 -k RTR
r -t 1.060317325 -s 3 -d -1 -p AODV -e 48 -c 2 -a 0 -i 0 -k RTR
+ -t 1.060382325 -s 3 -d -1 -p RTS -e 44 -c 2 -a 0 -i 0 -k MAC 
- -t 1.060382325 -s 3 -d -1 -p RTS -e 44 -c 2 -a 0 -i 0 -k MAC
h -t 1.060382325 -s 3 -d -1 -p RTS -e 44 -c 2 -a 0 -i 0 -k MAC
r -t 1.060735158 -s 0 -d -1 -p RTS -e 44 -c 2 -a 0 -i 0 -k MAC
+ -t 1.060745158 -s 0 -d -1 -p CTS -e 38 -c 2 -a 0 -i 0 -k MAC 
- -t 1.060745158 -s 0 -d -1 -p CTS -e 38 -c 2 -a 0 -i 0 -k MAC
h -t 1.060745158 -s 0 -d -1 -p CTS -e 38 -c 2 -a 0 -i 0 -k MAC
r -t 1.061049991 -s 3 -d -1 -p CTS -e 38 -c 2 -a 0 -i 0 -k MAC
+ -t 1.061059991 -s 3 -d 0 -p ack -e 98 -c 2 -a 0 -i 13 -k MAC 
- -t 1.061059991 -s 3 -d 0 -p ack -e 98 -c 2 -a 0 -i 13 -k MAC
h -t 1.061059991 -s 3 -d 0 -p ack -e 98 -c 2 -a 0 -i 13 -k MAC
r -t 1.061844825 -s 0 -d 0 -p ack -e 40 -c 2 -a 0 -i 13 -k MAC
+ -t 1.061854825 -s 0 -d -1 -p ACK -e 38 -c 2 -a 0 -i 0 -k MAC 
- -t 1.061854825 -s 0 -d -1 -p ACK -e 38 -c 2 -a 0 -i 0 -k MAC
h -t 1.061854825 -s 0 -d -1 -p ACK -e 38 -c 2 -a 0 -i 0 -k MAC
r -t 1.061869825 -s 0 -d 0 -p ack -e 40 -c 2 -a 0 -i 13 -k AGT
+ -t 1.061869825 -s 0 -d -1 -p tcp -e 1040 -c 2 -a 0 -i 14 -k AGT 
- -t 1.061869825 -s 0 -d -1 -p tcp -e 1040 -c 2 -a 0 -i 14 -k AGT
h -t 1.061869825 -s 0 -d -1 -p tcp -e 1040 -c 2 -a 0 -i 14 -k AGT
+ -t 1.061869825 -s 0 -d -1 -p tcp -e 1040 -c 2 -a 0 -i 15 -k AGT 
- -t 1.061869825 -s 0 -d -1 -p tcp -e 1040 -c 2 -a 0 -i 15 -k AGT
h -t 1.061869825 -s 0 -d -1 -p tcp -e 1040 -c 2 -a 0 -i 15 -k AGT
+ -t 1.061869825 -s 0 -d 3 -p tcp -e 1040 -c 2 -a 0 -i 14 -k RTR 
- -t 1.061869825 -s 0 -d 3 -p tcp -e 1040 -c 2 -a 0 -i 14 -k RTR
h -t 1.061869825 -s 0 -d 3 -p tcp -e 1040 -c 2 -a 0 -i 14 -k RTR
+ -t 1.061869825 -s 0 -d 3 -p tcp -e 1040 -c 2 -a 0 -i 15 -k RTR 
- -t 1.061869825 -s 0 -d 3 -p tcp -e 1040 -c 2 -a 0 -i 15 -k RTR
h -t 1.061869825 -s 0 -d 3 -p tcp -e 1040 -c 2 -a 0 -i 15 -k RTR
r -t 1.062159658 -s 3 -d -1 -p ACK -e 38 -c 2 -a 0 -i 0 -k MAC
+ -t 1.062428825 -s 0 -d -1 -p RTS -e 44 -c 2 -a 0 -i 0 -k MAC 
- -t 1.062428825 -s 0 -d -1 -p RTS -e 44 -c 2 -a 0 -i 0 -k MAC
h -t 1.062428825 -s 0 -d -1 -p RTS -e 44 -c 2 -a 0 -i 0 -k MAC
r -t 1.062781658 -s 3 -d -1 -p RTS -e 44 -c 2 -a 0 -i 0 -k MAC
+ -t 1.062791658 -s 3 -d -1 -p CTS -e 38 -c 2 -a 0 -i 0 -k MAC 
- -t 1.062791658 -s 3 -d -1 -p CTS -e 38 -c 2 -a 0 -i 0 -k MAC
h -t 1.062791658 -s 3 -d -1 -p CTS -e 38 -c 2 -a 0 -i 0 -k MAC
r -t 1.063096491 -s 0 -d -1 -p CTS -e 38 -c 2 -a 0 -i 0 -k MAC
+ -t 1.063106491 -s 0 -d 3 -p tcp -e 1098 -c 2 -a 0 -i 8 -k MAC 
- -t 1.063106491 -s 0 -d 3 -p tcp -e 1098 -c 2 -a 0 -i 8 -k MAC
h -t 1.063106491 -s 0 -d 3 -p tcp -e 1098 -c 2 -a 0 -i 8 -k MAC
r -t 1.071891325 -s 3 -d 3 -p tcp -e 1040 -c 2 -a 0 -i 8 -k MAC
+ -t 1.071901325 -s 3 -d -1 -p ACK -e 38 -c 2 -a 0 -i 0 -k MAC 
- -t 1.071901325 -s 3 -d -1 -p ACK -e 38 -c 2 -a 0 -i 0 -k MAC
h -t 1.071901325 -s 3 -d -1 -p ACK -e 38 -c 2 -a 0 -i 0 -k MAC
r -t 1.071916325 -s 3 -d 3 -p tcp -e 1040 -c 2 -a 0 -i 8 -k AGT
+ -t 1.071916325 -s 3 -d -1 -p ack -e 40 -c 2 -a 0 -i 16 -k AGT 
- -t 1.071916325 -s 3 -d -1 -p ack -e 40 -c 2 -a 0 -i 16 -k AGT
h -t 1.071916325 -s 3 -d -1 -p ack -e 40 -c 2 -a 0 -i 16 -k AGT
+ -t 1.071916325 -s 3 -d 0 -p ack -e 40 -c 2 -a 0 -i 16 -k RTR 
- -t 1.071916325 -s 3 -d 0 -p ack -e 40 -c 2 -a 0 -i 16 -k RTR
h -t 1.071916325 -s 3 -d 0 -p ack -e 40 -c 2 -a 0 -i 16 -k RTR
r -t 1.072206158 -s 0 -d -1 -p ACK -e 38 -c 2 -a 0 -i 0 -k MAC
+ -t 1.072555325 -s 3 -d -1 -p RTS -e 44 -c 2 -a 0 -i 0 -k MAC 
- -t 1.072555325 -s 3 -d -1 -p RTS -e 44 -c 2 -a 0 -i 0 -k MAC
h -t 1.072555325 -s 3 -d -1 -p RTS -e 44 -c 2 -a 0 -i 0 -k MAC
r -t 1.072908158 -s 0 -d -1 -p RTS -e 44 -c 2 -a 0 -i 0 -k MAC
+ -t 1.072918158 -s 0 -d -1 -p CTS -e 38 -c 2 -a 0 -i 0 -k MAC 
- -t 1.072918158 -s 0 -d -1 -p CTS -e 38 -c 2 -a 0 -i 0 -k MAC
h -t 1.072918158 -s 0 -d -1 -p CTS -e 38 -c 2 -a 0 -i 0 -k MAC
r -t 1.073222991 -s 3 -d -1 -p CTS -e 38 -c 2 -a 0 -i 0 -k MAC
+ -t 1.073232991 -s 3 -d 0 -p ack -e 98 -c 2 -a 0 -i 16 -k MAC 
- -t 1.073232991 -s 3 -d 0 -p ack -e 98 -c 2 -a 0 -i 16 -k MAC
h -t 1.073232991 -s 3 -d 0 -p ack -e 98 -c 2 -a 0 -i 16 -k MAC
r -t 1.074017825 -s 0 -d 0 -p ack -e 40 -c 2 -a 0 -i 16 -k MAC
+ -t 1.074027825 -s 0 -d -1 -p ACK -e 38 -c 2 -a 0 -i 0 -k MAC 
- -t 1.074027825 -s 0 -d -1 -p ACK -e 38 -c 2 -a 0 -i 0 -k MAC
h -t 1.074027825 -s 0 -d -1 -p ACK -e 38 -c 2 -a 0 -i 0 -k MAC
r -t 1.074042825 -s 0 -d 0 -p ack -e 40 -c 2 -a 0 -i 16 -k AGT
+ -t 1.074042825 -s 0 -d -1 -p tcp -e 1040 -c 2 -a 0 -i 17 -k AGT 
- -t 1.074042825 -s 0 -d -1 -p tcp -e 1040 -c 2 -a 0 -i 17 -k AGT
h -t 1.074042825 -s 0 -d -1 -p tcp -e 1040 -c 2 -a 0 -i 17 -k AGT
+ -t 1.074042825 -s 0 -d -1 -p tcp -e 1040 -c 2 -a 0 -i 18 -k AGT 
- -t 1.074042825 -s 0 -d -1 -p tcp -e 1040 -c 2 -a 0 -i 18 -k AGT
h -t 1.074042825 -s 0 -d -1 -p tcp -e 1040 -c 2 -a 0 -i 18 -k AGT
+ -t 1.074042825 -s 0 -d 3 -p tcp -e 1040 -c 2 -a 0 -i 17 -k RTR 
- -t 1.074042825 -s 0 -d 3 -p tcp -e 1040 -c 2 -a 0 -i 17 -k RTR
h -t 1.074042825 -s 0 -d 3 -p tcp -e 1040 -c 2 -a 0 -i 17 -k RTR
+ -t 1.074042825 -s 0 -d 3 -p tcp -e 1040 -c 2 -a 0 -i 18 -k RTR 
- -t 1.074042825 -s 0 -d 3 -p tcp -e 1040 -c 2 -a 0 -i 18 -k RTR
h -t 1.074042825 -s 0 -d 3 -p tcp -e 1040 -c 2 -a 0 -i 18 -k RTR
r -t 1.074332658 -s 3 -d -1 -p ACK -e 38 -c 2 -a 0 -i 0 -k MAC
+ -t 1.074461825 -s 0 -d -1 -p RTS -e 44 -c 2 -a 0 -i 0 -k MAC 
- -t 1.074461825 -s 0 -d -1 -p RTS -e 44 -c 2 -a 0 -i 0 -k MAC
h -t 1.074461825 -s 0 -d -1 -p RTS -e 44 -c 2 -a 0 -i 0 -k MAC
r -t 1.074814658 -s 3 -d -1 -p RTS -e 44 -c 2 -a 0 -i 0 -k MAC
+ -t 1.074824658 -s 3 -d -1 -p CTS -e 38 -c 2 -a 0 -i 0 -k MAC 
- -t 1.074824658 -s 3 -d -1 -p CTS -e 38 -c 2 -a 0 -i 0 -k MAC
h -t 1.074824658 -s 3 -d -1 -p CTS -e 38 -c 2 -a 0 -i 0 -k MAC
r -t 1.075129491 -s 0 -d -1 -p CTS -e 38 -c 2 -a 0 -i 0 -k MAC
+ -t 1.075139491 -s 0 -d 3 -p tcp -e 1098 -c 2 -a 0 -i 9 -k MAC 
- -t 1.075139491 -s 0 -d 3 -p tcp -e 1098 -c 2 -a 0 -i 9 -k MAC
h -t 1.075139491 -s 0 -d 3 -p tcp -e 1098 -c 2 -a 0 -i 9 -k MAC
r -t 1.083924325 -s 3 -d 3 -p tcp -e 1040 -c 2 -a 0 -i 9 -k MAC
+ -t 1.083934325 -s 3 -d -1 -p ACK -e 38 -c 2 -a 0 -i 0 -k MAC 
- -t 1.083934325 -s 3 -d -1 -p ACK -e 38 -c 2 -a 0 -i 0 -k MAC
h -t 1.083934325 -s 3 -d -1 -p ACK -e 38 -c 2 -a 0 -i 0 -k MAC
r -t 1.083949325 -s 3 -d 3 -p tcp -e 1040 -c 2 -a 0 -i 9 -k AGT
+ -t 1.083949325 -s 3 -d -1 -p ack -e 40 -c 2 -a 0 -i 19 -k AGT 
- -t 1.083949325 -s 3 -d -1 -p ack -e 40 -c 2 -a 0 -i 19 -k AGT
h -t 1.083949325 -s 3 -d -1 -p ack -e 40 -c 2 -a 0 -i 19 -k AGT
+ -t 1.083949325 -s 3 -d 0 -p ack -e 40 -c 2 -a 0 -i 19 -k RTR 
- -t 1.083949325 -s 3 -d 0 -p ack -e 40 -c 2 -a 0 -i 19 -k RTR
h -t 1.083949325 -s 3 -d 0 -p ack -e 40 -c 2 -a 0 -i 19 -k RTR
r -t 1.084239158 -s 0 -d -1 -p ACK -e 38 -c 2 -a 0 -i 0 -k MAC
+ -t 1.084368325 -s 3 -d -1 -p RTS -e 44 -c 2 -a 0 -i 0 -k MAC 
- -t 1.084368325 -s 3 -d -1 -p RTS -e 44 -c 2 -a 0 -i 0 -k MAC
h -t 1.084368325 -s 3 -d -1 -p RTS -e 44 -c 2 -a 0 -i 0 -k MAC
+ -t 1.084369158 -s 0 -d -1 -p RTS -e 44 -c 2 -a 0 -i 0 -k MAC 
- -t 1.084369158 -s 0 -d -1 -p RTS -e 44 -c 2 -a 0 -i 0 -k MAC
h -t 1.084369158 -s 0 -d -1 -p RTS -e 44 -c 2 -a 0 -i 0 -k MAC
+ -t 1.085135158 -s 0 -d -1 -p RTS -e 44 -c 2 -a 0 -i 0 -k MAC 
- -t 1.085135158 -s 0 -d -1 -p RTS -e 44 -c 2 -a 0 -i 0 -k MAC
h -t 1.085135158 -s 0 -d -1 -p RTS -e 44 -c 2 -a 0 -i 0 -k MAC
r -t 1.085487991 -s 3 -d -1 -p RTS -e 44 -c 2 -a 0 -i 0 -k MAC
+ -t 1.085497991 -s 3 -d -1 -p CTS -e 38 -c 2 -a 0 -i 0 -k MAC 
- -t 1.085497991 -s 3 -d -1 -p CTS -e 38 -c 2 -a 0 -i 0 -k MAC
h -t 1.085497991 -s 3 -d -1 -p CTS -e 38 -c 2 -a 0 -i 0 -k MAC
r -t 1.085802825 -s 0 -d -1 -p CTS -e 38 -c 2 -a 0 -i 0 -k MAC
+ -t 1.085812825 -s 0 -d 3 -p tcp -e 1098 -c 2 -a 0 -i 11 -k MAC 
- -t 1.085812825 -s 0 -d 3 -p tcp -e 1098 -c 2 -a 0 -i 11 -k MAC
h -t 1.085812825 -s 0 -d 3 -p tcp -e 1098 -c 2 -a 0 -i 11 -k MAC
r -t 1.094597658 -s 3 -d 3 -p tcp -e 1040 -c 2 -a 0 -i 11 -k MAC
+ -t 1.094607658 -s 3 -d -1 -p ACK -e 38 -c 2 -a 0 -i 0 -k MAC 
- -t 1.094607658 -s 3 -d -1 -p ACK -e 38 -c 2 -a 0 -i 0 -k MAC
h -t 1.094607658 -s 3 -d -1 -p ACK -e 38 -c 2 -a 0 -i 0 -k MAC
r -t 1.094622658 -s 3 -d 3 -p tcp -e 1040 -c 2 -a 0 -i 11 -k AGT